HEADER
"PSFversion" "1.00"
"design" "(\"ECE_6240_Digial\" \"hw1_3_CMOS_2_Input_NAND_tb\" \"schematic\" \"\")"
"simulator" "spectre"
"temperature" "27"
"host" ""
"date" "Oct 18 11:43:46 2018"
"title" ""
"analysisList" "()"
END
