HEADER
"PSFversion" "1.00"
"__NEXT_FILE__" "hw1_1_inverter_tb"
