HEADER
"PSFversion" "1.00"
"I1n I0n" "hw1_1_c_inverter"
"Av" ":1v"
"Outv" ":2v"
