HEADER
"PSFversion" "1.00"
"__NEXT_FILE__" "hw2_1_b_buffer_tb"
