HEADER
"PSFversion" "1.00"
"N4n N3n N2n N1n N0n" "NCSU_Analog_Parts_nmos4_spectre"
"P0n" "NCSU_Analog_Parts_pmos4_spectre"
"Av" ":1v"
"Bv" ":2v"
"Cv" ":3v"
"Clkv" ":4v"
"Dv" ":5v"
"Gv" ":6v"
