HEADER
"PSFversion" "1.00"
"gnda!v" "gnda!v"
"vdd!v" "vdd!v"
"gnd!v" "0v"
