HEADER
"PSFversion" "1.00"
"N2n N1n N0n" "NCSU_Analog_Parts_nmos4_spectre"
"P0n P1n P2n" "NCSU_Analog_Parts_pmos4_spectre"
"Av" ":1v"
"Bv" ":2v"
"Cv" ":3v"
"Outv" ":4v"
