HEADER
"PSFversion" "1.00"
"__artInstanceTerminalDelimiter__" "."
"__artHierarchyDelimiter__" "."
"__netlister__" "AMS-UNL"
"__lib__" "ECE_6240_Digial"
"__cell__" "lab9_b_inv_tb2"
"__view__" "config"
"__topcell__" "lab9_b_inv_tb2"
"__outputformat__" "sst2"
