HEADER
"PSFversion" "1.00"
"design" "(\"6218_Final_Project\" \"Neural_Amp\" \"schematic\" \"\")"
"simulator" "spectre"
"temperature" "27"
"host" ""
"date" "Apr 27 21:43:22 2018"
"title" ""
"analysisList" "()"
END
