HEADER
"PSFversion" "1.00"
"simulator" "spectre"
"version" "11.1.0.425.isr10"
"date" "9:43:24 PM, Fri Apr 27, 2018"
"design" "// Generated for: spectre"
"analysis type" "info.subckts"
"analysis name" "subckts"
"analysis description" "Circuit Information"
"xVecSorted" "unknown"
"tolerance.relative" 0.00100000
TYPE
"subckt" STRUCT(
"subckt_params" STRING *
"subckt_terminals" STRING *
) PROP(
"key" "sub"
)
VALUE
"OTA" "subckt" (
""
"Vin Vout Vref inh_inh_bn 0 vdd!"
)
END
