HEADER
"PSFversion" "1.00"
"design" "(\"ECE_6240_Digial\" \"hw2_2_MUX_tb\" \"schematic\" \"\")"
"simulator" "spectre"
"temperature" "27"
"host" ""
"date" "Nov 13 13:20:26 2018"
"title" ""
"analysisList" "()"
END
