HEADER
"PSFversion" "1.00"
"P0n" "NCSU_Analog_Parts_pmos4_spectre"
"N0n" "NCSU_Analog_Parts_nmos4_spectre"
"VINv" ":1v"
"VOUTv" ":2v"
