HEADER
"PSFversion" "1.00"
"__NEXT_FILE__" "hw2_2_MUX_tb"
