HEADER
"PSFversion" "1.00"
"__NEXT_FILE__" "hw1_3_CMOS_2_Input_NOR_tb"
