HEADER
"PSFversion" "1.00"
"__NEXT_FILE__" "hw3_2_dynamic_cmos_3_tb"
