HEADER
"PSFversion" "1.00"
"design" "(\"Digial\" \"nand2_tb\" \"schematic\" \"\")"
"simulator" "spectre"
"temperature" "27"
"host" ""
"date" "Sep 25 16:14:56 2018"
"title" ""
"analysisList" "()"
END
