HEADER
"PSFversion" "1.00"
"design" "(\"ECE_6240_Digial\" \"hw1_3_CMOS_2_Input_NOR_tb\" \"schematic\" \"\")"
"simulator" "spectre"
"temperature" "27"
"host" ""
"date" "Oct 17 22:34:58 2018"
"title" ""
"analysisList" "()"
END
