HEADER
"PSFversion" "1.00"
"design" "(\"ECE_6240_Digital\" \"hw3_2_dynamic_cmos_3_tb\" \"schematic\" \"\")"
"simulator" "spectre"
"temperature" "27"
"host" ""
"date" "Nov 30 10:22:21 2018"
"title" ""
"analysisList" "()"
END
