HEADER
"PSFversion" "1.00"
"design" "(\"project_g01\" \"Mini_Frame_trial2_V01_tb\" \"config\" \"\")"
"simulator" "ams"
"temperature" "27"
"host" ""
"date" "Dec  1 19:32:10 2018"
"title" ""
"analysisList" "()"
END
