HEADER
"PSFversion" "1.00"
"design" "(\"Digial\" \"inv_tb\" \"schematic\" \"\")"
"simulator" "spectre"
"temperature" "27"
"host" ""
"date" "Sep 18 17:05:23 2018"
"title" ""
"analysisList" "()"
END
