HEADER
"PSFversion" "1.00"
"simulator" "spectre"
"version" "17.1.0.160.isr2"
"date" "5:05:26 PM, Tue Sep 18, 2018"
"design" "// Generated for: spectre"
"analysis type" "info.subckts"
"analysis name" "subckts"
"analysis description" "Circuit Information"
"xVecSorted" "unknown"
"tolerance.relative" 0.00100000
TYPE
"subckt" STRUCT(
"subckt_params" STRING *
"subckt_terminals" STRING *
"subckt_instances" STRING *
) PROP(
"key" "sub"
)
VALUE
"inv" "subckt" (
""
"VIN VOUT vdd! 0"
"I5"
)
END
