HEADER
"PSFversion" "1.00"
"100v" "\\100 v"
"1000v" "\\1000 v"
"1001v" "\\1001 v"
"1002v" "\\1002 v"
"1003v" "\\1003 v"
"1004v" "\\1004 v"
"1005v" "\\1005 v"
"1006v" "\\1006 v"
"1007v" "\\1007 v"
"1008v" "\\1008 v"
"1009v" "\\1009 v"
"101v" "\\101 v"
"1010v" "\\1010 v"
"1011v" "\\1011 v"
"1012v" "\\1012 v"
"1013v" "\\1013 v"
"1014v" "\\1014 v"
"1015v" "\\1015 v"
"1016v" "\\1016 v"
"1017v" "\\1017 v"
"1018v" "\\1018 v"
"1019v" "\\1019 v"
"102v" "\\102 v"
"1020v" "\\1020 v"
"1021v" "\\1021 v"
"1022v" "\\1022 v"
"1023v" "\\1023 v"
"1024v" "\\1024 v"
"1025v" "\\1025 v"
"1026v" "\\1026 v"
"1027v" "\\1027 v"
"1028v" "\\1028 v"
"1029v" "\\1029 v"
"103v" "\\103 v"
"1030v" "\\1030 v"
"1031v" "\\1031 v"
"1032v" "\\1032 v"
"1033v" "\\1033 v"
"1034v" "\\1034 v"
"1035v" "\\1035 v"
"1036v" "\\1036 v"
"1037v" "\\1037 v"
"1038v" "\\1038 v"
"1039v" "\\1039 v"
"104v" "\\104 v"
"1040v" "\\1040 v"
"1041v" "\\1041 v"
"1042v" "\\1042 v"
"1043v" "\\1043 v"
"1044v" "\\1044 v"
"1045v" "\\1045 v"
"1046v" "\\1046 v"
"1047v" "\\1047 v"
"1048v" "\\1048 v"
"1049v" "\\1049 v"
"105v" "\\105 v"
"1050v" "\\1050 v"
"1051v" "\\1051 v"
"1052v" "\\1052 v"
"1053v" "\\1053 v"
"1054v" "\\1054 v"
"1055v" "\\1055 v"
"1056v" "\\1056 v"
"1057v" "\\1057 v"
"1058v" "\\1058 v"
"1059v" "\\1059 v"
"106v" "\\106 v"
"1060v" "\\1060 v"
"1061v" "\\1061 v"
"1062v" "\\1062 v"
"1063v" "\\1063 v"
"1064v" "\\1064 v"
"1065v" "\\1065 v"
"1066v" "\\1066 v"
"1067v" "\\1067 v"
"1068v" "\\1068 v"
"1069v" "\\1069 v"
"107v" "\\107 v"
"1070v" "\\1070 v"
"1071v" "\\1071 v"
"1072v" "\\1072 v"
"1073v" "\\1073 v"
"1074v" "\\1074 v"
"1075v" "\\1075 v"
"1076v" "\\1076 v"
"1077v" "\\1077 v"
"1078v" "\\1078 v"
"1079v" "\\1079 v"
"108v" "\\108 v"
"1080v" "\\1080 v"
"1081v" "\\1081 v"
"1082v" "\\1082 v"
"1083v" "\\1083 v"
"1084v" "\\1084 v"
"1085v" "\\1085 v"
"1086v" "\\1086 v"
"1087v" "\\1087 v"
"1088v" "\\1088 v"
"1089v" "\\1089 v"
"109v" "\\109 v"
"1090v" "\\1090 v"
"1091v" "\\1091 v"
"1092v" "\\1092 v"
"1093v" "\\1093 v"
"1094v" "\\1094 v"
"1095v" "\\1095 v"
"1096v" "\\1096 v"
"1097v" "\\1097 v"
"1098v" "\\1098 v"
"1099v" "\\1099 v"
"110v" "\\110 v"
"1100v" "\\1100 v"
"1101v" "\\1101 v"
"1102v" "\\1102 v"
"1103v" "\\1103 v"
"1104v" "\\1104 v"
"1105v" "\\1105 v"
"1106v" "\\1106 v"
"1107v" "\\1107 v"
"1108v" "\\1108 v"
"1109v" "\\1109 v"
"111v" "\\111 v"
"1110v" "\\1110 v"
"1111v" "\\1111 v"
"1112v" "\\1112 v"
"1113v" "\\1113 v"
"1114v" "\\1114 v"
"1115v" "\\1115 v"
"1116v" "\\1116 v"
"1117v" "\\1117 v"
"1118v" "\\1118 v"
"1119v" "\\1119 v"
"112v" "\\112 v"
"1120v" "\\1120 v"
"1121v" "\\1121 v"
"1122v" "\\1122 v"
"1123v" "\\1123 v"
"1124v" "\\1124 v"
"1125v" "\\1125 v"
"1126v" "\\1126 v"
"1127v" "\\1127 v"
"1128v" "\\1128 v"
"1129v" "\\1129 v"
"113v" "\\113 v"
"1130v" "\\1130 v"
"1131v" "\\1131 v"
"1132v" "\\1132 v"
"1133v" "\\1133 v"
"1134v" "\\1134 v"
"1135v" "\\1135 v"
"1136v" "\\1136 v"
"1137v" "\\1137 v"
"1138v" "\\1138 v"
"1139v" "\\1139 v"
"114v" "\\114 v"
"1140v" "\\1140 v"
"1141v" "\\1141 v"
"1142v" "\\1142 v"
"1143v" "\\1143 v"
"1144v" "\\1144 v"
"1145v" "\\1145 v"
"1146v" "\\1146 v"
"1147v" "\\1147 v"
"1148v" "\\1148 v"
"1149v" "\\1149 v"
"115v" "\\115 v"
"1150v" "\\1150 v"
"1151v" "\\1151 v"
"1152v" "\\1152 v"
"1153v" "\\1153 v"
"1154v" "\\1154 v"
"1155v" "\\1155 v"
"1156v" "\\1156 v"
"1157v" "\\1157 v"
"1158v" "\\1158 v"
"1159v" "\\1159 v"
"116v" "\\116 v"
"1160v" "\\1160 v"
"1161v" "\\1161 v"
"1162v" "\\1162 v"
"1163v" "\\1163 v"
"1164v" "\\1164 v"
"1165v" "\\1165 v"
"1166v" "\\1166 v"
"1167v" "\\1167 v"
"1168v" "\\1168 v"
"1169v" "\\1169 v"
"117v" "\\117 v"
"1170v" "\\1170 v"
"1171v" "\\1171 v"
"1172v" "\\1172 v"
"1173v" "\\1173 v"
"1174v" "\\1174 v"
"1175v" "\\1175 v"
"1176v" "\\1176 v"
"1177v" "\\1177 v"
"1178v" "\\1178 v"
"1179v" "\\1179 v"
"118v" "\\118 v"
"1180v" "\\1180 v"
"1181v" "\\1181 v"
"1182v" "\\1182 v"
"1183v" "\\1183 v"
"1184v" "\\1184 v"
"1185v" "\\1185 v"
"1186v" "\\1186 v"
"1187v" "\\1187 v"
"1188v" "\\1188 v"
"1189v" "\\1189 v"
"119v" "\\119 v"
"1190v" "\\1190 v"
"1191v" "\\1191 v"
"1192v" "\\1192 v"
"1193v" "\\1193 v"
"1194v" "\\1194 v"
"1195v" "\\1195 v"
"1196v" "\\1196 v"
"1197v" "\\1197 v"
"1198v" "\\1198 v"
"1199v" "\\1199 v"
"120v" "\\120 v"
"1200v" "\\1200 v"
"1201v" "\\1201 v"
"1202v" "\\1202 v"
"1203v" "\\1203 v"
"1204v" "\\1204 v"
"1205v" "\\1205 v"
"1206v" "\\1206 v"
"1207v" "\\1207 v"
"1208v" "\\1208 v"
"1209v" "\\1209 v"
"121v" "\\121 v"
"1210v" "\\1210 v"
"1211v" "\\1211 v"
"1212v" "\\1212 v"
"1213v" "\\1213 v"
"1214v" "\\1214 v"
"1215v" "\\1215 v"
"1216v" "\\1216 v"
"1217v" "\\1217 v"
"1218v" "\\1218 v"
"1219v" "\\1219 v"
"122v" "\\122 v"
"1220v" "\\1220 v"
"1221v" "\\1221 v"
"1222v" "\\1222 v"
"1223v" "\\1223 v"
"1224v" "\\1224 v"
"1225v" "\\1225 v"
"1226v" "\\1226 v"
"1227v" "\\1227 v"
"1228v" "\\1228 v"
"1229v" "\\1229 v"
"123v" "\\123 v"
"1230v" "\\1230 v"
"1231v" "\\1231 v"
"1232v" "\\1232 v"
"1233v" "\\1233 v"
"1234v" "\\1234 v"
"1235v" "\\1235 v"
"1236v" "\\1236 v"
"1237v" "\\1237 v"
"1238v" "\\1238 v"
"1239v" "\\1239 v"
"124v" "\\124 v"
"1240v" "\\1240 v"
"1241v" "\\1241 v"
"1242v" "\\1242 v"
"1243v" "\\1243 v"
"1244v" "\\1244 v"
"1245v" "\\1245 v"
"1246v" "\\1246 v"
"1247v" "\\1247 v"
"1248v" "\\1248 v"
"1249v" "\\1249 v"
"125v" "\\125 v"
"1250v" "\\1250 v"
"1251v" "\\1251 v"
"1252v" "\\1252 v"
"1253v" "\\1253 v"
"1254v" "\\1254 v"
"1255v" "\\1255 v"
"1256v" "\\1256 v"
"1257v" "\\1257 v"
"1258v" "\\1258 v"
"1259v" "\\1259 v"
"126v" "\\126 v"
"1260v" "\\1260 v"
"1261v" "\\1261 v"
"1262v" "\\1262 v"
"1263v" "\\1263 v"
"1264v" "\\1264 v"
"1265v" "\\1265 v"
"1266v" "\\1266 v"
"1267v" "\\1267 v"
"1268v" "\\1268 v"
"1269v" "\\1269 v"
"127v" "\\127 v"
"1270v" "\\1270 v"
"1271v" "\\1271 v"
"1272v" "\\1272 v"
"1273v" "\\1273 v"
"1274v" "\\1274 v"
"1275v" "\\1275 v"
"1276v" "\\1276 v"
"1277v" "\\1277 v"
"1278v" "\\1278 v"
"1279v" "\\1279 v"
"128v" "\\128 v"
"1280v" "\\1280 v"
"1281v" "\\1281 v"
"1282v" "\\1282 v"
"1283v" "\\1283 v"
"1284v" "\\1284 v"
"1285v" "\\1285 v"
"1286v" "\\1286 v"
"1287v" "\\1287 v"
"1288v" "\\1288 v"
"1289v" "\\1289 v"
"129v" "\\129 v"
"1290v" "\\1290 v"
"1291v" "\\1291 v"
"1292v" "\\1292 v"
"1293v" "\\1293 v"
"1294v" "\\1294 v"
"1295v" "\\1295 v"
"1296v" "\\1296 v"
"1297v" "\\1297 v"
"1298v" "\\1298 v"
"1299v" "\\1299 v"
"130v" "\\130 v"
"1300v" "\\1300 v"
"1301v" "\\1301 v"
"1302v" "\\1302 v"
"1303v" "\\1303 v"
"1304v" "\\1304 v"
"1305v" "\\1305 v"
"1306v" "\\1306 v"
"1307v" "\\1307 v"
"1308v" "\\1308 v"
"1309v" "\\1309 v"
"131v" "\\131 v"
"1310v" "\\1310 v"
"1311v" "\\1311 v"
"1312v" "\\1312 v"
"1313v" "\\1313 v"
"1314v" "\\1314 v"
"1315v" "\\1315 v"
"1316v" "\\1316 v"
"1317v" "\\1317 v"
"1318v" "\\1318 v"
"1319v" "\\1319 v"
"132v" "\\132 v"
"1320v" "\\1320 v"
"1321v" "\\1321 v"
"1322v" "\\1322 v"
"1323v" "\\1323 v"
"1324v" "\\1324 v"
"1325v" "\\1325 v"
"1326v" "\\1326 v"
"1327v" "\\1327 v"
"1328v" "\\1328 v"
"1329v" "\\1329 v"
"133v" "\\133 v"
"1330v" "\\1330 v"
"1331v" "\\1331 v"
"1332v" "\\1332 v"
"1333v" "\\1333 v"
"1334v" "\\1334 v"
"1335v" "\\1335 v"
"1336v" "\\1336 v"
"1337v" "\\1337 v"
"1338v" "\\1338 v"
"1339v" "\\1339 v"
"134v" "\\134 v"
"1340v" "\\1340 v"
"1341v" "\\1341 v"
"1342v" "\\1342 v"
"1343v" "\\1343 v"
"1344v" "\\1344 v"
"1345v" "\\1345 v"
"1346v" "\\1346 v"
"1347v" "\\1347 v"
"1348v" "\\1348 v"
"1349v" "\\1349 v"
"135v" "\\135 v"
"1350v" "\\1350 v"
"1351v" "\\1351 v"
"1352v" "\\1352 v"
"1353v" "\\1353 v"
"1354v" "\\1354 v"
"1355v" "\\1355 v"
"1356v" "\\1356 v"
"1357v" "\\1357 v"
"1358v" "\\1358 v"
"1359v" "\\1359 v"
"136v" "\\136 v"
"1360v" "\\1360 v"
"1361v" "\\1361 v"
"1362v" "\\1362 v"
"1363v" "\\1363 v"
"1364v" "\\1364 v"
"1365v" "\\1365 v"
"1366v" "\\1366 v"
"1367v" "\\1367 v"
"1368v" "\\1368 v"
"1369v" "\\1369 v"
"137v" "\\137 v"
"1370v" "\\1370 v"
"1371v" "\\1371 v"
"1372v" "\\1372 v"
"1373v" "\\1373 v"
"1374v" "\\1374 v"
"1375v" "\\1375 v"
"1376v" "\\1376 v"
"1377v" "\\1377 v"
"1378v" "\\1378 v"
"1379v" "\\1379 v"
"138v" "\\138 v"
"1380v" "\\1380 v"
"1381v" "\\1381 v"
"1382v" "\\1382 v"
"1383v" "\\1383 v"
"1384v" "\\1384 v"
"1385v" "\\1385 v"
"1386v" "\\1386 v"
"1387v" "\\1387 v"
"1388v" "\\1388 v"
"1389v" "\\1389 v"
"139v" "\\139 v"
"1390v" "\\1390 v"
"1391v" "\\1391 v"
"1392v" "\\1392 v"
"1393v" "\\1393 v"
"1394v" "\\1394 v"
"1395v" "\\1395 v"
"1396v" "\\1396 v"
"1397v" "\\1397 v"
"1398v" "\\1398 v"
"1399v" "\\1399 v"
"140v" "\\140 v"
"1400v" "\\1400 v"
"1401v" "\\1401 v"
"1402v" "\\1402 v"
"1403v" "\\1403 v"
"1404v" "\\1404 v"
"1405v" "\\1405 v"
"1406v" "\\1406 v"
"1407v" "\\1407 v"
"1408v" "\\1408 v"
"1409v" "\\1409 v"
"141v" "\\141 v"
"1410v" "\\1410 v"
"1411v" "\\1411 v"
"1412v" "\\1412 v"
"1413v" "\\1413 v"
"1414v" "\\1414 v"
"1415v" "\\1415 v"
"1416v" "\\1416 v"
"1417v" "\\1417 v"
"1418v" "\\1418 v"
"1419v" "\\1419 v"
"142v" "\\142 v"
"1420v" "\\1420 v"
"1421v" "\\1421 v"
"1422v" "\\1422 v"
"1423v" "\\1423 v"
"1424v" "\\1424 v"
"1425v" "\\1425 v"
"1426v" "\\1426 v"
"1427v" "\\1427 v"
"1428v" "\\1428 v"
"1429v" "\\1429 v"
"143v" "\\143 v"
"1430v" "\\1430 v"
"1431v" "\\1431 v"
"1432v" "\\1432 v"
"1433v" "\\1433 v"
"1434v" "\\1434 v"
"1435v" "\\1435 v"
"1436v" "\\1436 v"
"1437v" "\\1437 v"
"1438v" "\\1438 v"
"1439v" "\\1439 v"
"144v" "\\144 v"
"1440v" "\\1440 v"
"1441v" "\\1441 v"
"1442v" "\\1442 v"
"1443v" "\\1443 v"
"1444v" "\\1444 v"
"1445v" "\\1445 v"
"1446v" "\\1446 v"
"1447v" "\\1447 v"
"1448v" "\\1448 v"
"1449v" "\\1449 v"
"145v" "\\145 v"
"1450v" "\\1450 v"
"1451v" "\\1451 v"
"1452v" "\\1452 v"
"1453v" "\\1453 v"
"1454v" "\\1454 v"
"1455v" "\\1455 v"
"1456v" "\\1456 v"
"1457v" "\\1457 v"
"1458v" "\\1458 v"
"1459v" "\\1459 v"
"146v" "\\146 v"
"1460v" "\\1460 v"
"1461v" "\\1461 v"
"1462v" "\\1462 v"
"1463v" "\\1463 v"
"1464v" "\\1464 v"
"1465v" "\\1465 v"
"1466v" "\\1466 v"
"1467v" "\\1467 v"
"1468v" "\\1468 v"
"1469v" "\\1469 v"
"147v" "\\147 v"
"1470v" "\\1470 v"
"1471v" "\\1471 v"
"1472v" "\\1472 v"
"1473v" "\\1473 v"
"1474v" "\\1474 v"
"1475v" "\\1475 v"
"1476v" "\\1476 v"
"1477v" "\\1477 v"
"1478v" "\\1478 v"
"1479v" "\\1479 v"
"148v" "\\148 v"
"1480v" "\\1480 v"
"1481v" "\\1481 v"
"1482v" "\\1482 v"
"1483v" "\\1483 v"
"1484v" "\\1484 v"
"1485v" "\\1485 v"
"1486v" "\\1486 v"
"1487v" "\\1487 v"
"1488v" "\\1488 v"
"1489v" "\\1489 v"
"149v" "\\149 v"
"1490v" "\\1490 v"
"1491v" "\\1491 v"
"1492v" "\\1492 v"
"1493v" "\\1493 v"
"1494v" "\\1494 v"
"1495v" "\\1495 v"
"1496v" "\\1496 v"
"1497v" "\\1497 v"
"1498v" "\\1498 v"
"1499v" "\\1499 v"
"150v" "\\150 v"
"1500v" "\\1500 v"
"1501v" "\\1501 v"
"1502v" "\\1502 v"
"1503v" "\\1503 v"
"1504v" "\\1504 v"
"1505v" "\\1505 v"
"1506v" "\\1506 v"
"1507v" "\\1507 v"
"1508v" "\\1508 v"
"1509v" "\\1509 v"
"151v" "\\151 v"
"1510v" "\\1510 v"
"1511v" "\\1511 v"
"1512v" "\\1512 v"
"1513v" "\\1513 v"
"1514v" "\\1514 v"
"1515v" "\\1515 v"
"1516v" "\\1516 v"
"1517v" "\\1517 v"
"1518v" "\\1518 v"
"1519v" "\\1519 v"
"152v" "\\152 v"
"1520v" "\\1520 v"
"1521v" "\\1521 v"
"1522v" "\\1522 v"
"1523v" "\\1523 v"
"1524v" "\\1524 v"
"1525v" "\\1525 v"
"1526v" "\\1526 v"
"1527v" "\\1527 v"
"1528v" "\\1528 v"
"1529v" "\\1529 v"
"153v" "\\153 v"
"1530v" "\\1530 v"
"1531v" "\\1531 v"
"1532v" "\\1532 v"
"1533v" "\\1533 v"
"1534v" "\\1534 v"
"1535v" "\\1535 v"
"1536v" "\\1536 v"
"1537v" "\\1537 v"
"1538v" "\\1538 v"
"1539v" "\\1539 v"
"154v" "\\154 v"
"1540v" "\\1540 v"
"1541v" "\\1541 v"
"1542v" "\\1542 v"
"1543v" "\\1543 v"
"1544v" "\\1544 v"
"1545v" "\\1545 v"
"1546v" "\\1546 v"
"1547v" "\\1547 v"
"1548v" "\\1548 v"
"1549v" "\\1549 v"
"155v" "\\155 v"
"1550v" "\\1550 v"
"1551v" "\\1551 v"
"1552v" "\\1552 v"
"1553v" "\\1553 v"
"1554v" "\\1554 v"
"1555v" "\\1555 v"
"1556v" "\\1556 v"
"1557v" "\\1557 v"
"1558v" "\\1558 v"
"1559v" "\\1559 v"
"156v" "\\156 v"
"1560v" "\\1560 v"
"1561v" "\\1561 v"
"1562v" "\\1562 v"
"1563v" "\\1563 v"
"1564v" "\\1564 v"
"1565v" "\\1565 v"
"1566v" "\\1566 v"
"1567v" "\\1567 v"
"1568v" "\\1568 v"
"1569v" "\\1569 v"
"157v" "\\157 v"
"1570v" "\\1570 v"
"1571v" "\\1571 v"
"1572v" "\\1572 v"
"1573v" "\\1573 v"
"1574v" "\\1574 v"
"1575v" "\\1575 v"
"1576v" "\\1576 v"
"1577v" "\\1577 v"
"1578v" "\\1578 v"
"1579v" "\\1579 v"
"158v" "\\158 v"
"1580v" "\\1580 v"
"1581v" "\\1581 v"
"1582v" "\\1582 v"
"1583v" "\\1583 v"
"1584v" "\\1584 v"
"1585v" "\\1585 v"
"1586v" "\\1586 v"
"1587v" "\\1587 v"
"1588v" "\\1588 v"
"1589v" "\\1589 v"
"159v" "\\159 v"
"1590v" "\\1590 v"
"1591v" "\\1591 v"
"1592v" "\\1592 v"
"1593v" "\\1593 v"
"1594v" "\\1594 v"
"1595v" "\\1595 v"
"160v" "\\160 v"
"161v" "\\161 v"
"162v" "\\162 v"
"163v" "\\163 v"
"1635v" "\\1635 v"
"1636v" "\\1636 v"
"1637v" "\\1637 v"
"1638v" "\\1638 v"
"1639v" "\\1639 v"
"164v" "\\164 v"
"1640v" "\\1640 v"
"1641v" "\\1641 v"
"1642v" "\\1642 v"
"1643v" "\\1643 v"
"1644v" "\\1644 v"
"1645v" "\\1645 v"
"1646v" "\\1646 v"
"1647v" "\\1647 v"
"1648v" "\\1648 v"
"1649v" "\\1649 v"
"165v" "\\165 v"
"1650v" "\\1650 v"
"1651v" "\\1651 v"
"1652v" "\\1652 v"
"1653v" "\\1653 v"
"1654v" "\\1654 v"
"1655v" "\\1655 v"
"1656v" "\\1656 v"
"1657v" "\\1657 v"
"1658v" "\\1658 v"
"1659v" "\\1659 v"
"166v" "\\166 v"
"1660v" "\\1660 v"
"1661v" "\\1661 v"
"1662v" "\\1662 v"
"1663v" "\\1663 v"
"1664v" "\\1664 v"
"1665v" "\\1665 v"
"1666v" "\\1666 v"
"1667v" "\\1667 v"
"1668v" "\\1668 v"
"1669v" "\\1669 v"
"167v" "\\167 v"
"1670v" "\\1670 v"
"1671v" "\\1671 v"
"1672v" "\\1672 v"
"1673v" "\\1673 v"
"1674v" "\\1674 v"
"1675v" "\\1675 v"
"1676v" "\\1676 v"
"1677v" "\\1677 v"
"1678v" "\\1678 v"
"1679v" "\\1679 v"
"168v" "\\168 v"
"1680v" "\\1680 v"
"1681v" "\\1681 v"
"1682v" "\\1682 v"
"1683v" "\\1683 v"
"1684v" "\\1684 v"
"1685v" "\\1685 v"
"1686v" "\\1686 v"
"1687v" "\\1687 v"
"1688v" "\\1688 v"
"1689v" "\\1689 v"
"169v" "\\169 v"
"1690v" "\\1690 v"
"1691v" "\\1691 v"
"1692v" "\\1692 v"
"1693v" "\\1693 v"
"1694v" "\\1694 v"
"1695v" "\\1695 v"
"1696v" "\\1696 v"
"1697v" "\\1697 v"
"1698v" "\\1698 v"
"1699v" "\\1699 v"
"170v" "\\170 v"
"1700v" "\\1700 v"
"1701v" "\\1701 v"
"1702v" "\\1702 v"
"1703v" "\\1703 v"
"1704v" "\\1704 v"
"1705v" "\\1705 v"
"1706v" "\\1706 v"
"1707v" "\\1707 v"
"1708v" "\\1708 v"
"1709v" "\\1709 v"
"171v" "\\171 v"
"1710v" "\\1710 v"
"1711v" "\\1711 v"
"1712v" "\\1712 v"
"1713v" "\\1713 v"
"1714v" "\\1714 v"
"1715v" "\\1715 v"
"1716v" "\\1716 v"
"1717v" "\\1717 v"
"1718v" "\\1718 v"
"1719v" "\\1719 v"
"172v" "\\172 v"
"1720v" "\\1720 v"
"1721v" "\\1721 v"
"1722v" "\\1722 v"
"1723v" "\\1723 v"
"1724v" "\\1724 v"
"1725v" "\\1725 v"
"1726v" "\\1726 v"
"1727v" "\\1727 v"
"1728v" "\\1728 v"
"1729v" "\\1729 v"
"173v" "\\173 v"
"1730v" "\\1730 v"
"1731v" "\\1731 v"
"1732v" "\\1732 v"
"1733v" "\\1733 v"
"1734v" "\\1734 v"
"1735v" "\\1735 v"
"1736v" "\\1736 v"
"1737v" "\\1737 v"
"1738v" "\\1738 v"
"1739v" "\\1739 v"
"174v" "\\174 v"
"1740v" "\\1740 v"
"1741v" "\\1741 v"
"1742v" "\\1742 v"
"1743v" "\\1743 v"
"1744v" "\\1744 v"
"1745v" "\\1745 v"
"1746v" "\\1746 v"
"1747v" "\\1747 v"
"1748v" "\\1748 v"
"1749v" "\\1749 v"
"175v" "\\175 v"
"1750v" "\\1750 v"
"1751v" "\\1751 v"
"1752v" "\\1752 v"
"1753v" "\\1753 v"
"1754v" "\\1754 v"
"1755v" "\\1755 v"
"1756v" "\\1756 v"
"1757v" "\\1757 v"
"1758v" "\\1758 v"
"1759v" "\\1759 v"
"176v" "\\176 v"
"1760v" "\\1760 v"
"1761v" "\\1761 v"
"1762v" "\\1762 v"
"1763v" "\\1763 v"
"1764v" "\\1764 v"
"1765v" "\\1765 v"
"1766v" "\\1766 v"
"1767v" "\\1767 v"
"1768v" "\\1768 v"
"1769v" "\\1769 v"
"177v" "\\177 v"
"1770v" "\\1770 v"
"1771v" "\\1771 v"
"1772v" "\\1772 v"
"1773v" "\\1773 v"
"1774v" "\\1774 v"
"1775v" "\\1775 v"
"1776v" "\\1776 v"
"1777v" "\\1777 v"
"1778v" "\\1778 v"
"1779v" "\\1779 v"
"178v" "\\178 v"
"1780v" "\\1780 v"
"1781v" "\\1781 v"
"1782v" "\\1782 v"
"1783v" "\\1783 v"
"1784v" "\\1784 v"
"1785v" "\\1785 v"
"1786v" "\\1786 v"
"1787v" "\\1787 v"
"1788v" "\\1788 v"
"1789v" "\\1789 v"
"179v" "\\179 v"
"1790v" "\\1790 v"
"1791v" "\\1791 v"
"1792v" "\\1792 v"
"1793v" "\\1793 v"
"1794v" "\\1794 v"
"1795v" "\\1795 v"
"1796v" "\\1796 v"
"1797v" "\\1797 v"
"1798v" "\\1798 v"
"1799v" "\\1799 v"
"180v" "\\180 v"
"1800v" "\\1800 v"
"1801v" "\\1801 v"
"1802v" "\\1802 v"
"1803v" "\\1803 v"
"1804v" "\\1804 v"
"1805v" "\\1805 v"
"1806v" "\\1806 v"
"1807v" "\\1807 v"
"1808v" "\\1808 v"
"1809v" "\\1809 v"
"181v" "\\181 v"
"1810v" "\\1810 v"
"1811v" "\\1811 v"
"1812v" "\\1812 v"
"1813v" "\\1813 v"
"1814v" "\\1814 v"
"1815v" "\\1815 v"
"1816v" "\\1816 v"
"1817v" "\\1817 v"
"1818v" "\\1818 v"
"1819v" "\\1819 v"
"182v" "\\182 v"
"1820v" "\\1820 v"
"1821v" "\\1821 v"
"1822v" "\\1822 v"
"1823v" "\\1823 v"
"1824v" "\\1824 v"
"1825v" "\\1825 v"
"1826v" "\\1826 v"
"1827v" "\\1827 v"
"1828v" "\\1828 v"
"1829v" "\\1829 v"
"183v" "\\183 v"
"1830v" "\\1830 v"
"1831v" "\\1831 v"
"1832v" "\\1832 v"
"1833v" "\\1833 v"
"1834v" "\\1834 v"
"1835v" "\\1835 v"
"1836v" "\\1836 v"
"1837v" "\\1837 v"
"1838v" "\\1838 v"
"1839v" "\\1839 v"
"184v" "\\184 v"
"1840v" "\\1840 v"
"1841v" "\\1841 v"
"1842v" "\\1842 v"
"1843v" "\\1843 v"
"1844v" "\\1844 v"
"1845v" "\\1845 v"
"1846v" "\\1846 v"
"1847v" "\\1847 v"
"1848v" "\\1848 v"
"1849v" "\\1849 v"
"185v" "\\185 v"
"1850v" "\\1850 v"
"1851v" "\\1851 v"
"1852v" "\\1852 v"
"1853v" "\\1853 v"
"1854v" "\\1854 v"
"1855v" "\\1855 v"
"1856v" "\\1856 v"
"1857v" "\\1857 v"
"1858v" "\\1858 v"
"1859v" "\\1859 v"
"186v" "\\186 v"
"1860v" "\\1860 v"
"1861v" "\\1861 v"
"1862v" "\\1862 v"
"1863v" "\\1863 v"
"1864v" "\\1864 v"
"1865v" "\\1865 v"
"1866v" "\\1866 v"
"1867v" "\\1867 v"
"1868v" "\\1868 v"
"1869v" "\\1869 v"
"187v" "\\187 v"
"1870v" "\\1870 v"
"1871v" "\\1871 v"
"1872v" "\\1872 v"
"1873v" "\\1873 v"
"1874v" "\\1874 v"
"1875v" "\\1875 v"
"1876v" "\\1876 v"
"1877v" "\\1877 v"
"1878v" "\\1878 v"
"1879v" "\\1879 v"
"188v" "\\188 v"
"1880v" "\\1880 v"
"1881v" "\\1881 v"
"1882v" "\\1882 v"
"1883v" "\\1883 v"
"1884v" "\\1884 v"
"1885v" "\\1885 v"
"1886v" "\\1886 v"
"1887v" "\\1887 v"
"1888v" "\\1888 v"
"1889v" "\\1889 v"
"189v" "\\189 v"
"1890v" "\\1890 v"
"1891v" "\\1891 v"
"1892v" "\\1892 v"
"1893v" "\\1893 v"
"1894v" "\\1894 v"
"1895v" "\\1895 v"
"1896v" "\\1896 v"
"1897v" "\\1897 v"
"1898v" "\\1898 v"
"1899v" "\\1899 v"
"190v" "\\190 v"
"1900v" "\\1900 v"
"1901v" "\\1901 v"
"1902v" "\\1902 v"
"1903v" "\\1903 v"
"1904v" "\\1904 v"
"1905v" "\\1905 v"
"1906v" "\\1906 v"
"1907v" "\\1907 v"
"1908v" "\\1908 v"
"1909v" "\\1909 v"
"191v" "\\191 v"
"1910v" "\\1910 v"
"1911v" "\\1911 v"
"1912v" "\\1912 v"
"1913v" "\\1913 v"
"1914v" "\\1914 v"
"1915v" "\\1915 v"
"1916v" "\\1916 v"
"1917v" "\\1917 v"
"1918v" "\\1918 v"
"1919v" "\\1919 v"
"192v" "\\192 v"
"1920v" "\\1920 v"
"1921v" "\\1921 v"
"1922v" "\\1922 v"
"1923v" "\\1923 v"
"1924v" "\\1924 v"
"1925v" "\\1925 v"
"1926v" "\\1926 v"
"1927v" "\\1927 v"
"1928v" "\\1928 v"
"1929v" "\\1929 v"
"193v" "\\193 v"
"1930v" "\\1930 v"
"1931v" "\\1931 v"
"1932v" "\\1932 v"
"1933v" "\\1933 v"
"1934v" "\\1934 v"
"1935v" "\\1935 v"
"1936v" "\\1936 v"
"1937v" "\\1937 v"
"1938v" "\\1938 v"
"1939v" "\\1939 v"
"194v" "\\194 v"
"1940v" "\\1940 v"
"1941v" "\\1941 v"
"1942v" "\\1942 v"
"1943v" "\\1943 v"
"1944v" "\\1944 v"
"1945v" "\\1945 v"
"1946v" "\\1946 v"
"1947v" "\\1947 v"
"1948v" "\\1948 v"
"1949v" "\\1949 v"
"195v" "\\195 v"
"1950v" "\\1950 v"
"1951v" "\\1951 v"
"1952v" "\\1952 v"
"1953v" "\\1953 v"
"1954v" "\\1954 v"
"1955v" "\\1955 v"
"1956v" "\\1956 v"
"1957v" "\\1957 v"
"1958v" "\\1958 v"
"1959v" "\\1959 v"
"196v" "\\196 v"
"1960v" "\\1960 v"
"1961v" "\\1961 v"
"1962v" "\\1962 v"
"1963v" "\\1963 v"
"1964v" "\\1964 v"
"1965v" "\\1965 v"
"1966v" "\\1966 v"
"1967v" "\\1967 v"
"1968v" "\\1968 v"
"1969v" "\\1969 v"
"197v" "\\197 v"
"1970v" "\\1970 v"
"1971v" "\\1971 v"
"1972v" "\\1972 v"
"1973v" "\\1973 v"
"1974v" "\\1974 v"
"1975v" "\\1975 v"
"1976v" "\\1976 v"
"1977v" "\\1977 v"
"1978v" "\\1978 v"
"1979v" "\\1979 v"
"198v" "\\198 v"
"1980v" "\\1980 v"
"1981v" "\\1981 v"
"1982v" "\\1982 v"
"1983v" "\\1983 v"
"1984v" "\\1984 v"
"1985v" "\\1985 v"
"1986v" "\\1986 v"
"1987v" "\\1987 v"
"1988v" "\\1988 v"
"1989v" "\\1989 v"
"199v" "\\199 v"
"1990v" "\\1990 v"
"1991v" "\\1991 v"
"1992v" "\\1992 v"
"1993v" "\\1993 v"
"1994v" "\\1994 v"
"1995v" "\\1995 v"
"1996v" "\\1996 v"
"1997v" "\\1997 v"
"1998v" "\\1998 v"
"1999v" "\\1999 v"
"200v" "\\200 v"
"2000v" "\\2000 v"
"2001v" "\\2001 v"
"2002v" "\\2002 v"
"2003v" "\\2003 v"
"2004v" "\\2004 v"
"2005v" "\\2005 v"
"2006v" "\\2006 v"
"2007v" "\\2007 v"
"2008v" "\\2008 v"
"2009v" "\\2009 v"
"201v" "\\201 v"
"2010v" "\\2010 v"
"2011v" "\\2011 v"
"2012v" "\\2012 v"
"2013v" "\\2013 v"
"2014v" "\\2014 v"
"2015v" "\\2015 v"
"2016v" "\\2016 v"
"2017v" "\\2017 v"
"2018v" "\\2018 v"
"2019v" "\\2019 v"
"202v" "\\202 v"
"2020v" "\\2020 v"
"2021v" "\\2021 v"
"2022v" "\\2022 v"
"2023v" "\\2023 v"
"2024v" "\\2024 v"
"2025v" "\\2025 v"
"2026v" "\\2026 v"
"2027v" "\\2027 v"
"2028v" "\\2028 v"
"2029v" "\\2029 v"
"203v" "\\203 v"
"2030v" "\\2030 v"
"2031v" "\\2031 v"
"2032v" "\\2032 v"
"2033v" "\\2033 v"
"2034v" "\\2034 v"
"2035v" "\\2035 v"
"2036v" "\\2036 v"
"2037v" "\\2037 v"
"2038v" "\\2038 v"
"2039v" "\\2039 v"
"204v" "\\204 v"
"2040v" "\\2040 v"
"2041v" "\\2041 v"
"2042v" "\\2042 v"
"2043v" "\\2043 v"
"2044v" "\\2044 v"
"2045v" "\\2045 v"
"2046v" "\\2046 v"
"2047v" "\\2047 v"
"2048v" "\\2048 v"
"2049v" "\\2049 v"
"205v" "\\205 v"
"2050v" "\\2050 v"
"2051v" "\\2051 v"
"2052v" "\\2052 v"
"2053v" "\\2053 v"
"2054v" "\\2054 v"
"2055v" "\\2055 v"
"2056v" "\\2056 v"
"2057v" "\\2057 v"
"2058v" "\\2058 v"
"2059v" "\\2059 v"
"206v" "\\206 v"
"2060v" "\\2060 v"
"2061v" "\\2061 v"
"2062v" "\\2062 v"
"2063v" "\\2063 v"
"2064v" "\\2064 v"
"2065v" "\\2065 v"
"2066v" "\\2066 v"
"2067v" "\\2067 v"
"2068v" "\\2068 v"
"2069v" "\\2069 v"
"207v" "\\207 v"
"2070v" "\\2070 v"
"2071v" "\\2071 v"
"2072v" "\\2072 v"
"2073v" "\\2073 v"
"2074v" "\\2074 v"
"2075v" "\\2075 v"
"2076v" "\\2076 v"
"2077v" "\\2077 v"
"2078v" "\\2078 v"
"2079v" "\\2079 v"
"208v" "\\208 v"
"2080v" "\\2080 v"
"2081v" "\\2081 v"
"2082v" "\\2082 v"
"2083v" "\\2083 v"
"2084v" "\\2084 v"
"2085v" "\\2085 v"
"2086v" "\\2086 v"
"2087v" "\\2087 v"
"2088v" "\\2088 v"
"2089v" "\\2089 v"
"209v" "\\209 v"
"2090v" "\\2090 v"
"2091v" "\\2091 v"
"2092v" "\\2092 v"
"2093v" "\\2093 v"
"2094v" "\\2094 v"
"2095v" "\\2095 v"
"2096v" "\\2096 v"
"2097v" "\\2097 v"
"2098v" "\\2098 v"
"2099v" "\\2099 v"
"210v" "\\210 v"
"2100v" "\\2100 v"
"2101v" "\\2101 v"
"2102v" "\\2102 v"
"2103v" "\\2103 v"
"2104v" "\\2104 v"
"2105v" "\\2105 v"
"2106v" "\\2106 v"
"2107v" "\\2107 v"
"2108v" "\\2108 v"
"2109v" "\\2109 v"
"211v" "\\211 v"
"2110v" "\\2110 v"
"2111v" "\\2111 v"
"2112v" "\\2112 v"
"2113v" "\\2113 v"
"2114v" "\\2114 v"
"2115v" "\\2115 v"
"2116v" "\\2116 v"
"2117v" "\\2117 v"
"2118v" "\\2118 v"
"2119v" "\\2119 v"
"212v" "\\212 v"
"2120v" "\\2120 v"
"2121v" "\\2121 v"
"2122v" "\\2122 v"
"2123v" "\\2123 v"
"2124v" "\\2124 v"
"2125v" "\\2125 v"
"2126v" "\\2126 v"
"2127v" "\\2127 v"
"2128v" "\\2128 v"
"2129v" "\\2129 v"
"213v" "\\213 v"
"2130v" "\\2130 v"
"2131v" "\\2131 v"
"2132v" "\\2132 v"
"2133v" "\\2133 v"
"2134v" "\\2134 v"
"2135v" "\\2135 v"
"2136v" "\\2136 v"
"2137v" "\\2137 v"
"2138v" "\\2138 v"
"2139v" "\\2139 v"
"214v" "\\214 v"
"2140v" "\\2140 v"
"2141v" "\\2141 v"
"2142v" "\\2142 v"
"2143v" "\\2143 v"
"2144v" "\\2144 v"
"2145v" "\\2145 v"
"2146v" "\\2146 v"
"2147v" "\\2147 v"
"2148v" "\\2148 v"
"2149v" "\\2149 v"
"215v" "\\215 v"
"2150v" "\\2150 v"
"2151v" "\\2151 v"
"2152v" "\\2152 v"
"2153v" "\\2153 v"
"2154v" "\\2154 v"
"2155v" "\\2155 v"
"2156v" "\\2156 v"
"2157v" "\\2157 v"
"2158v" "\\2158 v"
"2159v" "\\2159 v"
"216v" "\\216 v"
"2160v" "\\2160 v"
"2161v" "\\2161 v"
"2162v" "\\2162 v"
"2163v" "\\2163 v"
"2164v" "\\2164 v"
"2165v" "\\2165 v"
"2166v" "\\2166 v"
"2167v" "\\2167 v"
"2168v" "\\2168 v"
"2169v" "\\2169 v"
"217v" "\\217 v"
"2170v" "\\2170 v"
"2171v" "\\2171 v"
"2172v" "\\2172 v"
"2173v" "\\2173 v"
"2174v" "\\2174 v"
"2175v" "\\2175 v"
"2176v" "\\2176 v"
"2177v" "\\2177 v"
"2178v" "\\2178 v"
"2179v" "\\2179 v"
"218v" "\\218 v"
"2180v" "\\2180 v"
"2181v" "\\2181 v"
"2182v" "\\2182 v"
"2183v" "\\2183 v"
"2184v" "\\2184 v"
"2185v" "\\2185 v"
"2186v" "\\2186 v"
"2187v" "\\2187 v"
"2188v" "\\2188 v"
"2189v" "\\2189 v"
"219v" "\\219 v"
"2190v" "\\2190 v"
"2191v" "\\2191 v"
"2192v" "\\2192 v"
"2193v" "\\2193 v"
"2194v" "\\2194 v"
"2195v" "\\2195 v"
"2196v" "\\2196 v"
"2197v" "\\2197 v"
"2198v" "\\2198 v"
"2199v" "\\2199 v"
"220v" "\\220 v"
"2200v" "\\2200 v"
"2201v" "\\2201 v"
"2202v" "\\2202 v"
"2203v" "\\2203 v"
"2204v" "\\2204 v"
"2205v" "\\2205 v"
"2206v" "\\2206 v"
"2207v" "\\2207 v"
"2208v" "\\2208 v"
"2209v" "\\2209 v"
"221v" "\\221 v"
"2210v" "\\2210 v"
"2211v" "\\2211 v"
"2212v" "\\2212 v"
"2213v" "\\2213 v"
"2214v" "\\2214 v"
"2215v" "\\2215 v"
"2216v" "\\2216 v"
"2217v" "\\2217 v"
"2218v" "\\2218 v"
"2219v" "\\2219 v"
"222v" "\\222 v"
"2220v" "\\2220 v"
"2221v" "\\2221 v"
"2222v" "\\2222 v"
"2223v" "\\2223 v"
"2224v" "\\2224 v"
"2225v" "\\2225 v"
"2226v" "\\2226 v"
"2227v" "\\2227 v"
"2228v" "\\2228 v"
"2229v" "\\2229 v"
"223v" "\\223 v"
"2230v" "\\2230 v"
"2231v" "\\2231 v"
"2232v" "\\2232 v"
"2233v" "\\2233 v"
"224v" "\\224 v"
"225v" "\\225 v"
"226v" "\\226 v"
"227v" "\\227 v"
"228v" "\\228 v"
"229v" "\\229 v"
"230v" "\\230 v"
"231v" "\\231 v"
"232v" "\\232 v"
"233v" "\\233 v"
"234v" "\\234 v"
"235v" "\\235 v"
"236v" "\\236 v"
"237v" "\\237 v"
"238v" "\\238 v"
"239v" "\\239 v"
"240v" "\\240 v"
"241v" "\\241 v"
"242v" "\\242 v"
"243v" "\\243 v"
"244v" "\\244 v"
"245v" "\\245 v"
"246v" "\\246 v"
"247v" "\\247 v"
"248v" "\\248 v"
"249v" "\\249 v"
"250v" "\\250 v"
"251v" "\\251 v"
"252v" "\\252 v"
"253v" "\\253 v"
"254v" "\\254 v"
"255v" "\\255 v"
"256v" "\\256 v"
"257v" "\\257 v"
"258v" "\\258 v"
"259v" "\\259 v"
"260v" "\\260 v"
"261v" "\\261 v"
"262v" "\\262 v"
"263v" "\\263 v"
"264v" "\\264 v"
"265v" "\\265 v"
"266v" "\\266 v"
"267v" "\\267 v"
"268v" "\\268 v"
"269v" "\\269 v"
"270v" "\\270 v"
"271v" "\\271 v"
"272v" "\\272 v"
"273v" "\\273 v"
"274v" "\\274 v"
"275v" "\\275 v"
"276v" "\\276 v"
"277v" "\\277 v"
"278v" "\\278 v"
"279v" "\\279 v"
"280v" "\\280 v"
"281v" "\\281 v"
"282v" "\\282 v"
"283v" "\\283 v"
"284v" "\\284 v"
"285v" "\\285 v"
"286v" "\\286 v"
"287v" "\\287 v"
"288v" "\\288 v"
"289v" "\\289 v"
"290v" "\\290 v"
"291v" "\\291 v"
"292v" "\\292 v"
"293v" "\\293 v"
"294v" "\\294 v"
"295v" "\\295 v"
"296v" "\\296 v"
"297v" "\\297 v"
"298v" "\\298 v"
"299v" "\\299 v"
"300v" "\\300 v"
"301v" "\\301 v"
"302v" "\\302 v"
"303v" "\\303 v"
"304v" "\\304 v"
"305v" "\\305 v"
"306v" "\\306 v"
"307v" "\\307 v"
"308v" "\\308 v"
"309v" "\\309 v"
"310v" "\\310 v"
"311v" "\\311 v"
"312v" "\\312 v"
"313v" "\\313 v"
"314v" "\\314 v"
"315v" "\\315 v"
"316v" "\\316 v"
"317v" "\\317 v"
"318v" "\\318 v"
"319v" "\\319 v"
"320v" "\\320 v"
"321v" "\\321 v"
"322v" "\\322 v"
"323v" "\\323 v"
"324v" "\\324 v"
"325v" "\\325 v"
"326v" "\\326 v"
"327v" "\\327 v"
"328v" "\\328 v"
"329v" "\\329 v"
"330v" "\\330 v"
"331v" "\\331 v"
"332v" "\\332 v"
"333v" "\\333 v"
"334v" "\\334 v"
"335v" "\\335 v"
"336v" "\\336 v"
"337v" "\\337 v"
"338v" "\\338 v"
"339v" "\\339 v"
"340v" "\\340 v"
"341v" "\\341 v"
"342v" "\\342 v"
"343v" "\\343 v"
"344v" "\\344 v"
"345v" "\\345 v"
"346v" "\\346 v"
"347v" "\\347 v"
"348v" "\\348 v"
"349v" "\\349 v"
"350v" "\\350 v"
"351v" "\\351 v"
"352v" "\\352 v"
"353v" "\\353 v"
"354v" "\\354 v"
"355v" "\\355 v"
"356v" "\\356 v"
"357v" "\\357 v"
"358v" "\\358 v"
"359v" "\\359 v"
"360v" "\\360 v"
"361v" "\\361 v"
"362v" "\\362 v"
"363v" "\\363 v"
"364v" "\\364 v"
"365v" "\\365 v"
"366v" "\\366 v"
"367v" "\\367 v"
"368v" "\\368 v"
"369v" "\\369 v"
"370v" "\\370 v"
"371v" "\\371 v"
"372v" "\\372 v"
"373v" "\\373 v"
"374v" "\\374 v"
"375v" "\\375 v"
"376v" "\\376 v"
"377v" "\\377 v"
"378v" "\\378 v"
"379v" "\\379 v"
"38v" "\\38 v"
"380v" "\\380 v"
"381v" "\\381 v"
"382v" "\\382 v"
"383v" "\\383 v"
"384v" "\\384 v"
"385v" "\\385 v"
"386v" "\\386 v"
"387v" "\\387 v"
"388v" "\\388 v"
"389v" "\\389 v"
"39v" "\\39 v"
"390v" "\\390 v"
"391v" "\\391 v"
"392v" "\\392 v"
"393v" "\\393 v"
"394v" "\\394 v"
"395v" "\\395 v"
"396v" "\\396 v"
"397v" "\\397 v"
"398v" "\\398 v"
"399v" "\\399 v"
"40v" "\\40 v"
"400v" "\\400 v"
"401v" "\\401 v"
"402v" "\\402 v"
"403v" "\\403 v"
"404v" "\\404 v"
"405v" "\\405 v"
"406v" "\\406 v"
"407v" "\\407 v"
"408v" "\\408 v"
"409v" "\\409 v"
"41v" "\\41 v"
"410v" "\\410 v"
"411v" "\\411 v"
"412v" "\\412 v"
"413v" "\\413 v"
"414v" "\\414 v"
"415v" "\\415 v"
"416v" "\\416 v"
"417v" "\\417 v"
"418v" "\\418 v"
"419v" "\\419 v"
"42v" "\\42 v"
"420v" "\\420 v"
"421v" "\\421 v"
"422v" "\\422 v"
"423v" "\\423 v"
"424v" "\\424 v"
"425v" "\\425 v"
"426v" "\\426 v"
"427v" "\\427 v"
"428v" "\\428 v"
"429v" "\\429 v"
"43v" "\\43 v"
"430v" "\\430 v"
"431v" "\\431 v"
"432v" "\\432 v"
"433v" "\\433 v"
"434v" "\\434 v"
"435v" "\\435 v"
"436v" "\\436 v"
"437v" "\\437 v"
"438v" "\\438 v"
"439v" "\\439 v"
"44v" "\\44 v"
"440v" "\\440 v"
"441v" "\\441 v"
"442v" "\\442 v"
"443v" "\\443 v"
"444v" "\\444 v"
"445v" "\\445 v"
"446v" "\\446 v"
"447v" "\\447 v"
"448v" "\\448 v"
"449v" "\\449 v"
"45v" "\\45 v"
"450v" "\\450 v"
"451v" "\\451 v"
"452v" "\\452 v"
"453v" "\\453 v"
"454v" "\\454 v"
"455v" "\\455 v"
"456v" "\\456 v"
"457v" "\\457 v"
"458v" "\\458 v"
"459v" "\\459 v"
"46v" "\\46 v"
"460v" "\\460 v"
"461v" "\\461 v"
"462v" "\\462 v"
"463v" "\\463 v"
"464v" "\\464 v"
"465v" "\\465 v"
"466v" "\\466 v"
"467v" "\\467 v"
"468v" "\\468 v"
"469v" "\\469 v"
"47v" "\\47 v"
"470v" "\\470 v"
"471v" "\\471 v"
"472v" "\\472 v"
"473v" "\\473 v"
"474v" "\\474 v"
"475v" "\\475 v"
"476v" "\\476 v"
"477v" "\\477 v"
"478v" "\\478 v"
"479v" "\\479 v"
"48v" "\\48 v"
"480v" "\\480 v"
"481v" "\\481 v"
"482v" "\\482 v"
"483v" "\\483 v"
"484v" "\\484 v"
"485v" "\\485 v"
"486v" "\\486 v"
"487v" "\\487 v"
"488v" "\\488 v"
"489v" "\\489 v"
"49v" "\\49 v"
"490v" "\\490 v"
"491v" "\\491 v"
"492v" "\\492 v"
"493v" "\\493 v"
"494v" "\\494 v"
"495v" "\\495 v"
"496v" "\\496 v"
"497v" "\\497 v"
"498v" "\\498 v"
"499v" "\\499 v"
"50v" "\\50 v"
"500v" "\\500 v"
"501v" "\\501 v"
"502v" "\\502 v"
"503v" "\\503 v"
"504v" "\\504 v"
"505v" "\\505 v"
"506v" "\\506 v"
"507v" "\\507 v"
"508v" "\\508 v"
"509v" "\\509 v"
"51v" "\\51 v"
"510v" "\\510 v"
"511v" "\\511 v"
"512v" "\\512 v"
"513v" "\\513 v"
"514v" "\\514 v"