HEADER
"PSFversion" "1.00"
"A0v" "(FUNCTION or(mappedRoot(\".20@index\") mappedRoot(\".A0\")))v"
"A0v" ".A0v"
"A0v" ".\\20 v"
"A1v" "(FUNCTION or(mappedRoot(\".21@index\") mappedRoot(\".A1\")))v"
"A1v" ".A1v"
"A1v" ".\\21 v"
"A2v" "(FUNCTION or(mappedRoot(\".22@index\") mappedRoot(\".A2\")))v"
"A2v" ".A2v"
"A2v" ".\\22 v"
"A3v" "(FUNCTION or(mappedRoot(\".23@index\") mappedRoot(\".A3\")))v"
"A3v" ".A3v"
"A3v" ".\\23 v"
"A4v" "(FUNCTION or(mappedRoot(\".24@index\") mappedRoot(\".A4\")))v"
"A4v" ".A4v"
"A4v" ".\\24 v"
"A5v" "(FUNCTION or(mappedRoot(\".25@index\") mappedRoot(\".A5\")))v"
"A5v" ".A5v"
"A5v" ".\\25 v"
"A6v" "(FUNCTION or(mappedRoot(\".26@index\") mappedRoot(\".A6\")))v"
"A6v" ".A6v"
"A6v" ".\\26 v"
"A7v" "(FUNCTION or(mappedRoot(\".27@index\") mappedRoot(\".A7\")))v"
"A7v" ".A7v"
"A7v" ".\\27 v"
"B0v" "(FUNCTION or(mappedRoot(\".28@index\") mappedRoot(\".B0\")))v"
"B0v" ".B0v"
"B0v" ".\\28 v"
"B1v" "(FUNCTION or(mappedRoot(\".29@index\") mappedRoot(\".B1\")))v"
"B1v" ".B1v"
"B1v" ".\\29 v"
"B2v" "(FUNCTION or(mappedRoot(\".30@index\") mappedRoot(\".B2\")))v"
"B2v" ".B2v"
"B2v" ".\\30 v"
"B3v" "(FUNCTION or(mappedRoot(\".31@index\") mappedRoot(\".B3\")))v"
"B3v" ".B3v"
"B3v" ".\\31 v"
"B4v" "(FUNCTION or(mappedRoot(\".32@index\") mappedRoot(\".B4\")))v"
"B4v" ".B4v"
"B4v" ".\\32 v"
"B5v" "(FUNCTION or(mappedRoot(\".33@index\") mappedRoot(\".B5\")))v"
"B5v" ".B5v"
"B5v" ".\\33 v"
"B6v" "(FUNCTION or(mappedRoot(\".34@index\") mappedRoot(\".B6\")))v"
"B6v" ".B6v"
"B6v" ".\\34 v"
"B7v" "(FUNCTION or(mappedRoot(\".35@index\") mappedRoot(\".B7\")))v"
"B7v" ".B7v"
"B7v" ".\\35 v"
"Clk1v" "(FUNCTION or(mappedRoot(\".36@index\") mappedRoot(\".Clk1\")))v"
"Clk1v" ".Clk1v"
"Clk1v" ".\\36 v"
"Clk1A0v" "(FUNCTION or(mappedRoot(\".1@index\") mappedRoot(\".Clk1A0\")))v"
"Clk1A0v" ".Clk1A0v"
"Clk1A0v" ".\\1 v"
"Clk2v" "(FUNCTION or(mappedRoot(\".37@index\") mappedRoot(\".Clk2\")))v"
"Clk2v" ".Clk2v"
"Clk2v" ".\\37 v"
"Clk2A0v" "(FUNCTION or(mappedRoot(\".2@index\") mappedRoot(\".Clk2A0\")))v"
"Clk2A0v" ".Clk2A0v"
"Clk2A0v" ".\\2 v"
"F0v" "(FUNCTION or(mappedRoot(\".3@index\") mappedRoot(\".F0\")))v"
"F0v" ".F0v"
"F0v" ".\\3 v"
"F1v" "(FUNCTION or(mappedRoot(\".4@index\") mappedRoot(\".F1\")))v"
"F1v" ".F1v"
"F1v" ".\\4 v"
"F10v" "(FUNCTION or(mappedRoot(\".13@index\") mappedRoot(\".F10\")))v"
"F10v" ".F10v"
"F10v" ".\\13 v"
"F11v" "(FUNCTION or(mappedRoot(\".14@index\") mappedRoot(\".F11\")))v"
"F11v" ".F11v"
"F11v" ".\\14 v"
"F12v" "(FUNCTION or(mappedRoot(\".15@index\") mappedRoot(\".F12\")))v"
"F12v" ".F12v"
"F12v" ".\\15 v"
"F13v" "(FUNCTION or(mappedRoot(\".16@index\") mappedRoot(\".F13\")))v"
"F13v" ".F13v"
"F13v" ".\\16 v"
"F14v" "(FUNCTION or(mappedRoot(\".17@index\") mappedRoot(\".F14\")))v"
"F14v" ".F14v"
"F14v" ".\\17 v"
"F15v" "(FUNCTION or(mappedRoot(\".18@index\") mappedRoot(\".F15\")))v"
"F15v" ".F15v"
"F15v" ".\\18 v"
"F2v" "(FUNCTION or(mappedRoot(\".5@index\") mappedRoot(\".F2\")))v"
"F2v" ".F2v"
"F2v" ".\\5 v"
"F3v" "(FUNCTION or(mappedRoot(\".6@index\") mappedRoot(\".F3\")))v"
"F3v" ".F3v"
"F3v" ".\\6 v"
"F4v" "(FUNCTION or(mappedRoot(\".7@index\") mappedRoot(\".F4\")))v"
"F4v" ".F4v"
"F4v" ".\\7 v"
"F5v" "(FUNCTION or(mappedRoot(\".8@index\") mappedRoot(\".F5\")))v"
"F5v" ".F5v"
"F5v" ".\\8 v"
"F6v" "(FUNCTION or(mappedRoot(\".9@index\") mappedRoot(\".F6\")))v"
"F6v" ".F6v"
"F6v" ".\\9 v"
"F7v" "(FUNCTION or(mappedRoot(\".10@index\") mappedRoot(\".F7\")))v"
"F7v" ".F7v"
"F7v" ".\\10 v"
"F8v" "(FUNCTION or(mappedRoot(\".11@index\") mappedRoot(\".F8\")))v"
"F8v" ".F8v"
"F8v" ".\\11 v"
"F9v" "(FUNCTION or(mappedRoot(\".12@index\") mappedRoot(\".F9\")))v"
"F9v" ".F9v"
"F9v" ".\\12 v"
"gnd!v" "(FUNCTION or(mappedRoot(\".19@index\") mappedRoot(\".\\\\gnd! \")))v"
"gnd!v" ".\\gnd! v"
"gnd!v" ".\\19 v"
"+0v" "\\+0 v"
"+1v" "\\+1 v"
"+10v" "\\+10 v"
"+100v" "\\+100 v"
"+1000v" "\\+1000 v"
"+10000v" "\\+10000 v"
"+10001v" "\\+10001 v"
"+10002v" "\\+10002 v"
"+10003v" "\\+10003 v"
"+10004v" "\\+10004 v"
"+10005v" "\\+10005 v"
"+10006v" "\\+10006 v"
"+10007v" "\\+10007 v"
"+10008v" "\\+10008 v"
"+10009v" "\\+10009 v"
"+1001v" "\\+1001 v"
"+10010v" "\\+10010 v"
"+10011v" "\\+10011 v"
"+10012v" "\\+10012 v"
"+10013v" "\\+10013 v"
"+10014v" "\\+10014 v"
"+10015v" "\\+10015 v"
"+10016v" "\\+10016 v"
"+10017v" "\\+10017 v"
"+10018v" "\\+10018 v"
"+10019v" "\\+10019 v"
"+1002v" "\\+1002 v"
"+10020v" "\\+10020 v"
"+10021v" "\\+10021 v"
"+10022v" "\\+10022 v"
"+10023v" "\\+10023 v"
"+10024v" "\\+10024 v"
"+10025v" "\\+10025 v"
"+10026v" "\\+10026 v"
"+10027v" "\\+10027 v"
"+10028v" "\\+10028 v"
"+10029v" "\\+10029 v"
"+1003v" "\\+1003 v"
"+10030v" "\\+10030 v"
"+10031v" "\\+10031 v"
"+10032v" "\\+10032 v"
"+10033v" "\\+10033 v"
"+10034v" "\\+10034 v"
"+10035v" "\\+10035 v"
"+10036v" "\\+10036 v"
"+10037v" "\\+10037 v"
"+10038v" "\\+10038 v"
"+10039v" "\\+10039 v"
"+1004v" "\\+1004 v"
"+10040v" "\\+10040 v"
"+10041v" "\\+10041 v"
"+10042v" "\\+10042 v"
"+10043v" "\\+10043 v"
"+10044v" "\\+10044 v"
"+10045v" "\\+10045 v"
"+10046v" "\\+10046 v"
"+10047v" "\\+10047 v"
"+10048v" "\\+10048 v"
"+10049v" "\\+10049 v"
"+1005v" "\\+1005 v"
"+10050v" "\\+10050 v"
"+10051v" "\\+10051 v"
"+10052v" "\\+10052 v"
"+10053v" "\\+10053 v"
"+10054v" "\\+10054 v"
"+10055v" "\\+10055 v"
"+10056v" "\\+10056 v"
"+10057v" "\\+10057 v"
"+10058v" "\\+10058 v"
"+10059v" "\\+10059 v"
"+1006v" "\\+1006 v"
"+10060v" "\\+10060 v"
"+10061v" "\\+10061 v"
"+10062v" "\\+10062 v"
"+10063v" "\\+10063 v"
"+10064v" "\\+10064 v"
"+10065v" "\\+10065 v"
"+10066v" "\\+10066 v"
"+10067v" "\\+10067 v"
"+10068v" "\\+10068 v"
"+10069v" "\\+10069 v"
"+1007v" "\\+1007 v"
"+10070v" "\\+10070 v"
"+10071v" "\\+10071 v"
"+10072v" "\\+10072 v"
"+10073v" "\\+10073 v"
"+10074v" "\\+10074 v"
"+10075v" "\\+10075 v"
"+10076v" "\\+10076 v"
"+10077v" "\\+10077 v"
"+10078v" "\\+10078 v"
"+10079v" "\\+10079 v"
"+1008v" "\\+1008 v"
"+10080v" "\\+10080 v"
"+10081v" "\\+10081 v"
"+10082v" "\\+10082 v"
"+10083v" "\\+10083 v"
"+10084v" "\\+10084 v"
"+10085v" "\\+10085 v"
"+10086v" "\\+10086 v"
"+10087v" "\\+10087 v"
"+10088v" "\\+10088 v"
"+10089v" "\\+10089 v"
"+1009v" "\\+1009 v"
"+10090v" "\\+10090 v"
"+10091v" "\\+10091 v"
"+10092v" "\\+10092 v"
"+10093v" "\\+10093 v"
"+10094v" "\\+10094 v"
"+10095v" "\\+10095 v"
"+10096v" "\\+10096 v"
"+10097v" "\\+10097 v"
"+10098v" "\\+10098 v"
"+10099v" "\\+10099 v"
"+101v" "\\+101 v"
"+1010v" "\\+1010 v"
"+10100v" "\\+10100 v"
"+10101v" "\\+10101 v"
"+10102v" "\\+10102 v"
"+10103v" "\\+10103 v"
"+10104v" "\\+10104 v"
"+10105v" "\\+10105 v"
"+10106v" "\\+10106 v"
"+10107v" "\\+10107 v"
"+10108v" "\\+10108 v"
"+10109v" "\\+10109 v"
"+1011v" "\\+1011 v"
"+10110v" "\\+10110 v"
"+10111v" "\\+10111 v"
"+10112v" "\\+10112 v"
"+10113v" "\\+10113 v"
"+10114v" "\\+10114 v"
"+10115v" "\\+10115 v"
"+10116v" "\\+10116 v"
"+10117v" "\\+10117 v"
"+10118v" "\\+10118 v"
"+10119v" "\\+10119 v"
"+1012v" "\\+1012 v"
"+10120v" "\\+10120 v"
"+10121v" "\\+10121 v"
"+10122v" "\\+10122 v"
"+10123v" "\\+10123 v"
"+10124v" "\\+10124 v"
"+10125v" "\\+10125 v"
"+10126v" "\\+10126 v"
"+10127v" "\\+10127 v"
"+10128v" "\\+10128 v"
"+10129v" "\\+10129 v"
"+1013v" "\\+1013 v"
"+10130v" "\\+10130 v"
"+10131v" "\\+10131 v"
"+10132v" "\\+10132 v"
"+10133v" "\\+10133 v"
"+10134v" "\\+10134 v"
"+10135v" "\\+10135 v"
"+10136v" "\\+10136 v"
"+10137v" "\\+10137 v"
"+10138v" "\\+10138 v"
"+10139v" "\\+10139 v"
"+1014v" "\\+1014 v"
"+10140v" "\\+10140 v"
"+10141v" "\\+10141 v"
"+10142v" "\\+10142 v"
"+10143v" "\\+10143 v"
"+10144v" "\\+10144 v"
"+10145v" "\\+10145 v"
"+10146v" "\\+10146 v"
"+10147v" "\\+10147 v"
"+10148v" "\\+10148 v"
"+10149v" "\\+10149 v"
"+1015v" "\\+1015 v"
"+10150v" "\\+10150 v"
"+10151v" "\\+10151 v"
"+10152v" "\\+10152 v"
"+10153v" "\\+10153 v"
"+10154v" "\\+10154 v"
"+10155v" "\\+10155 v"
"+10156v" "\\+10156 v"
"+10157v" "\\+10157 v"
"+10158v" "\\+10158 v"
"+10159v" "\\+10159 v"
"+1016v" "\\+1016 v"
"+10160v" "\\+10160 v"
"+10161v" "\\+10161 v"
"+10162v" "\\+10162 v"
"+10163v" "\\+10163 v"
"+10164v" "\\+10164 v"
"+10165v" "\\+10165 v"
"+10166v" "\\+10166 v"
"+10167v" "\\+10167 v"
"+10168v" "\\+10168 v"
"+10169v" "\\+10169 v"
"+1017v" "\\+1017 v"
"+10170v" "\\+10170 v"
"+10171v" "\\+10171 v"
"+10172v" "\\+10172 v"
"+10173v" "\\+10173 v"
"+10174v" "\\+10174 v"
"+10175v" "\\+10175 v"
"+10176v" "\\+10176 v"
"+10177v" "\\+10177 v"
"+10178v" "\\+10178 v"
"+10179v" "\\+10179 v"
"+1018v" "\\+1018 v"
"+10180v" "\\+10180 v"
"+10181v" "\\+10181 v"
"+10182v" "\\+10182 v"
"+10183v" "\\+10183 v"
"+10184v" "\\+10184 v"
"+10185v" "\\+10185 v"
"+10186v" "\\+10186 v"
"+10187v" "\\+10187 v"
"+10188v" "\\+10188 v"
"+10189v" "\\+10189 v"
"+1019v" "\\+1019 v"
"+10190v" "\\+10190 v"
"+10191v" "\\+10191 v"
"+10192v" "\\+10192 v"
"+10193v" "\\+10193 v"
"+10194v" "\\+10194 v"
"+10195v" "\\+10195 v"
"+10196v" "\\+10196 v"
"+10197v" "\\+10197 v"
"+10198v" "\\+10198 v"
"+10199v" "\\+10199 v"
"+102v" "\\+102 v"
"+1020v" "\\+1020 v"
"+10200v" "\\+10200 v"
"+10201v" "\\+10201 v"
"+10202v" "\\+10202 v"
"+10203v" "\\+10203 v"
"+10204v" "\\+10204 v"
"+10205v" "\\+10205 v"
"+10206v" "\\+10206 v"
"+10207v" "\\+10207 v"
"+10208v" "\\+10208 v"
"+10209v" "\\+10209 v"
"+1021v" "\\+1021 v"
"+10210v" "\\+10210 v"
"+10211v" "\\+10211 v"
"+10212v" "\\+10212 v"
"+10213v" "\\+10213 v"
"+10214v" "\\+10214 v"
"+10215v" "\\+10215 v"
"+10216v" "\\+10216 v"
"+10217v" "\\+10217 v"
"+10218v" "\\+10218 v"
"+10219v" "\\+10219 v"
"+1022v" "\\+1022 v"
"+10220v" "\\+10220 v"
"+10221v" "\\+10221 v"
"+10222v" "\\+10222 v"
"+10223v" "\\+10223 v"
"+10224v" "\\+10224 v"
"+10225v" "\\+10225 v"
"+10226v" "\\+10226 v"
"+10227v" "\\+10227 v"
"+10228v" "\\+10228 v"
"+10229v" "\\+10229 v"
"+1023v" "\\+1023 v"
"+10230v" "\\+10230 v"
"+10231v" "\\+10231 v"
"+10232v" "\\+10232 v"
"+10233v" "\\+10233 v"
"+10234v" "\\+10234 v"
"+10235v" "\\+10235 v"
"+10236v" "\\+10236 v"
"+10237v" "\\+10237 v"
"+10238v" "\\+10238 v"
"+10239v" "\\+10239 v"
"+1024v" "\\+1024 v"
"+10240v" "\\+10240 v"
"+10241v" "\\+10241 v"
"+10242v" "\\+10242 v"
"+10243v" "\\+10243 v"
"+10244v" "\\+10244 v"
"+10245v" "\\+10245 v"
"+10246v" "\\+10246 v"
"+10247v" "\\+10247 v"
"+10248v" "\\+10248 v"
"+10249v" "\\+10249 v"
"+1025v" "\\+1025 v"
"+10250v" "\\+10250 v"
"+10251v" "\\+10251 v"
"+10252v" "\\+10252 v"
"+10253v" "\\+10253 v"
"+10254v" "\\+10254 v"
"+10255v" "\\+10255 v"
"+10256v" "\\+10256 v"
"+10257v" "\\+10257 v"
"+10258v" "\\+10258 v"
"+10259v" "\\+10259 v"
"+1026v" "\\+1026 v"
"+10260v" "\\+10260 v"
"+10261v" "\\+10261 v"
"+10262v" "\\+10262 v"
"+10263v" "\\+10263 v"
"+10264v" "\\+10264 v"
"+10265v" "\\+10265 v"
"+10266v" "\\+10266 v"
"+10267v" "\\+10267 v"
"+10268v" "\\+10268 v"
"+10269v" "\\+10269 v"
"+1027v" "\\+1027 v"
"+10270v" "\\+10270 v"
"+10271v" "\\+10271 v"
"+10272v" "\\+10272 v"
"+10273v" "\\+10273 v"
"+10274v" "\\+10274 v"
"+10275v" "\\+10275 v"
"+10276v" "\\+10276 v"
"+10277v" "\\+10277 v"
"+10278v" "\\+10278 v"
"+10279v" "\\+10279 v"
"+1028v" "\\+1028 v"
"+10280v" "\\+10280 v"
"+10281v" "\\+10281 v"
"+10282v" "\\+10282 v"
"+10283v" "\\+10283 v"
"+10284v" "\\+10284 v"
"+10285v" "\\+10285 v"
"+10286v" "\\+10286 v"
"+10287v" "\\+10287 v"
"+10288v" "\\+10288 v"
"+10289v" "\\+10289 v"
"+1029v" "\\+1029 v"
"+10290v" "\\+10290 v"
"+10291v" "\\+10291 v"
"+10292v" "\\+10292 v"
"+10293v" "\\+10293 v"
"+10294v" "\\+10294 v"
"+10295v" "\\+10295 v"
"+10296v" "\\+10296 v"
"+10297v" "\\+10297 v"
"+10298v" "\\+10298 v"
"+10299v" "\\+10299 v"
"+103v" "\\+103 v"
"+1030v" "\\+1030 v"
"+10300v" "\\+10300 v"
"+10301v" "\\+10301 v"
"+10302v" "\\+10302 v"
"+10303v" "\\+10303 v"
"+10304v" "\\+10304 v"
"+10305v" "\\+10305 v"
"+10306v" "\\+10306 v"
"+10307v" "\\+10307 v"
"+10308v" "\\+10308 v"
"+10309v" "\\+10309 v"
"+1031v" "\\+1031 v"
"+10310v" "\\+10310 v"
"+10311v" "\\+10311 v"
"+10312v" "\\+10312 v"
"+10313v" "\\+10313 v"
"+10314v" "\\+10314 v"
"+10315v" "\\+10315 v"
"+10316v" "\\+10316 v"
"+10317v" "\\+10317 v"
"+10318v" "\\+10318 v"
"+10319v" "\\+10319 v"
"+1032v" "\\+1032 v"
"+10320v" "\\+10320 v"
"+10321v" "\\+10321 v"
"+10322v" "\\+10322 v"
"+10323v" "\\+10323 v"
"+10324v" "\\+10324 v"
"+10325v" "\\+10325 v"
"+10326v" "\\+10326 v"
"+10327v" "\\+10327 v"
"+10328v" "\\+10328 v"
"+10329v" "\\+10329 v"
"+1033v" "\\+1033 v"
"+10330v" "\\+10330 v"
"+10331v" "\\+10331 v"
"+10332v" "\\+10332 v"
"+10333v" "\\+10333 v"
"+10334v" "\\+10334 v"
"+10335v" "\\+10335 v"
"+10336v" "\\+10336 v"
"+10337v" "\\+10337 v"
"+10338v" "\\+10338 v"
"+10339v" "\\+10339 v"
"+1034v" "\\+1034 v"
"+10340v" "\\+10340 v"
"+10341v" "\\+10341 v"
"+10342v" "\\+10342 v"
"+10343v" "\\+10343 v"
"+10344v" "\\+10344 v"
"+10345v" "\\+10345 v"
"+10346v" "\\+10346 v"
"+10347v" "\\+10347 v"
"+10348v" "\\+10348 v"
"+10349v" "\\+10349 v"
"+1035v" "\\+1035 v"
"+10350v" "\\+10350 v"
"+10351v" "\\+10351 v"
"+10352v" "\\+10352 v"
"+10353v" "\\+10353 v"
"+10354v" "\\+10354 v"
"+10355v" "\\+10355 v"
"+10356v" "\\+10356 v"
"+10357v" "\\+10357 v"
"+10358v" "\\+10358 v"
"+10359v" "\\+10359 v"
"+1036v" "\\+1036 v"
"+10360v" "\\+10360 v"
"+10361v" "\\+10361 v"
"+10362v" "\\+10362 v"
"+10363v" "\\+10363 v"
"+10364v" "\\+10364 v"
"+10365v" "\\+10365 v"
"+10366v" "\\+10366 v"
"+10367v" "\\+10367 v"
"+10368v" "\\+10368 v"
"+10369v" "\\+10369 v"
"+1037v" "\\+1037 v"
"+10370v" "\\+10370 v"
"+10371v" "\\+10371 v"
"+10372v" "\\+10372 v"
"+10373v" "\\+10373 v"
"+10374v" "\\+10374 v"
"+10375v" "\\+10375 v"
"+10376v" "\\+10376 v"
"+10377v" "\\+10377 v"
"+10378v" "\\+10378 v"
"+10379v" "\\+10379 v"
"+1038v" "\\+1038 v"
"+10380v" "\\+10380 v"
"+10381v" "\\+10381 v"
"+10382v" "\\+10382 v"
"+10383v" "\\+10383 v"
"+10384v" "\\+10384 v"
"+10385v" "\\+10385 v"
"+10386v" "\\+10386 v"
"+10387v" "\\+10387 v"
"+10388v" "\\+10388 v"
"+10389v" "\\+10389 v"
"+1039v" "\\+1039 v"
"+10390v" "\\+10390 v"
"+10391v" "\\+10391 v"
"+10392v" "\\+10392 v"
"+10393v" "\\+10393 v"
"+10394v" "\\+10394 v"
"+10395v" "\\+10395 v"
"+10396v" "\\+10396 v"
"+10397v" "\\+10397 v"
"+10398v" "\\+10398 v"
"+10399v" "\\+10399 v"
"+104v" "\\+104 v"
"+1040v" "\\+1040 v"
"+10400v" "\\+10400 v"
"+10401v" "\\+10401 v"
"+10402v" "\\+10402 v"
"+10403v" "\\+10403 v"
"+10404v" "\\+10404 v"
"+10405v" "\\+10405 v"
"+10406v" "\\+10406 v"
"+10407v" "\\+10407 v"
"+10408v" "\\+10408 v"
"+10409v" "\\+10409 v"
"+1041v" "\\+1041 v"
"+10410v" "\\+10410 v"
"+10411v" "\\+10411 v"
"+10412v" "\\+10412 v"
"+10413v" "\\+10413 v"
"+10414v" "\\+10414 v"
"+10415v" "\\+10415 v"
"+10416v" "\\+10416 v"
"+10417v" "\\+10417 v"
"+10418v" "\\+10418 v"
"+10419v" "\\+10419 v"
"+1042v" "\\+1042 v"
"+10420v" "\\+10420 v"
"+10421v" "\\+10421 v"
"+10422v" "\\+10422 v"
"+10423v" "\\+10423 v"
"+10424v" "\\+10424 v"
"+10425v" "\\+10425 v"
"+10426v" "\\+10426 v"
"+10427v" "\\+10427 v"
"+10428v" "\\+10428 v"
"+10429v" "\\+10429 v"
"+1043v" "\\+1043 v"
"+10430v" "\\+10430 v"
"+10431v" "\\+10431 v"
"+10432v" "\\+10432 v"
"+10433v" "\\+10433 v"
"+10434v" "\\+10434 v"
"+10435v" "\\+10435 v"
"+10436v" "\\+10436 v"
"+10437v" "\\+10437 v"
"+10438v" "\\+10438 v"
"+10439v" "\\+10439 v"
"+1044v" "\\+1044 v"
"+10440v" "\\+10440 v"
"+10441v" "\\+10441 v"
"+10442v" "\\+10442 v"
"+10443v" "\\+10443 v"
"+10444v" "\\+10444 v"
"+10445v" "\\+10445 v"
"+10446v" "\\+10446 v"
"+10447v" "\\+10447 v"
"+10448v" "\\+10448 v"
"+10449v" "\\+10449 v"
"+1045v" "\\+1045 v"
"+10450v" "\\+10450 v"
"+10451v" "\\+10451 v"
"+10452v" "\\+10452 v"
"+10453v" "\\+10453 v"
"+10454v" "\\+10454 v"
"+10455v" "\\+10455 v"
"+10456v" "\\+10456 v"
"+10457v" "\\+10457 v"
"+10458v" "\\+10458 v"
"+10459v" "\\+10459 v"
"+1046v" "\\+1046 v"
"+10460v" "\\+10460 v"
"+10461v" "\\+10461 v"
"+10462v" "\\+10462 v"
"+10463v" "\\+10463 v"
"+10464v" "\\+10464 v"
"+10465v" "\\+10465 v"
"+10466v" "\\+10466 v"
"+10467v" "\\+10467 v"
"+10468v" "\\+10468 v"
"+10469v" "\\+10469 v"
"+1047v" "\\+1047 v"
"+10470v" "\\+10470 v"
"+10471v" "\\+10471 v"
"+10472v" "\\+10472 v"
"+10473v" "\\+10473 v"
"+10474v" "\\+10474 v"
"+10475v" "\\+10475 v"
"+10476v" "\\+10476 v"
"+10477v" "\\+10477 v"
"+10478v" "\\+10478 v"
"+10479v" "\\+10479 v"
"+1048v" "\\+1048 v"
"+10480v" "\\+10480 v"
"+10481v" "\\+10481 v"
"+10482v" "\\+10482 v"
"+10483v" "\\+10483 v"
"+10484v" "\\+10484 v"
"+10485v" "\\+10485 v"
"+10486v" "\\+10486 v"
"+10487v" "\\+10487 v"
"+10488v" "\\+10488 v"
"+10489v" "\\+10489 v"
"+1049v" "\\+1049 v"
"+10490v" "\\+10490 v"
"+10491v" "\\+10491 v"
"+10492v" "\\+10492 v"
"+10493v" "\\+10493 v"
"+10494v" "\\+10494 v"
"+10495v" "\\+10495 v"
"+10496v" "\\+10496 v"
"+10497v" "\\+10497 v"
"+10498v" "\\+10498 v"
"+10499v" "\\+10499 v"
"+105v" "\\+105 v"
"+1050v" "\\+1050 v"
"+10500v" "\\+10500 v"
"+10501v" "\\+10501 v"
"+10502v" "\\+10502 v"
"+10503v" "\\+10503 v"
"+10504v" "\\+10504 v"
"+10505v" "\\+10505 v"
"+10506v" "\\+10506 v"
"+10507v" "\\+10507 v"
"+10508v" "\\+10508 v"
"+10509v" "\\+10509 v"
"+1051v" "\\+1051 v"
"+10510v" "\\+10510 v"
"+10511v" "\\+10511 v"
"+10512v" "\\+10512 v"
"+10513v" "\\+10513 v"
"+10514v" "\\+10514 v"
"+10515v" "\\+10515 v"
"+10516v" "\\+10516 v"
"+10517v" "\\+10517 v"
"+10518v" "\\+10518 v"
"+10519v" "\\+10519 v"
"+1052v" "\\+1052 v"
"+10520v" "\\+10520 v"
"+10521v" "\\+10521 v"
"+10522v" "\\+10522 v"
"+10523v" "\\+10523 v"
"+10524v" "\\+10524 v"
"+10525v" "\\+10525 v"
"+10526v" "\\+10526 v"
"+10527v" "\\+10527 v"
"+10528v" "\\+10528 v"
"+10529v" "\\+10529 v"
"+1053v" "\\+1053 v"
"+10530v" "\\+10530 v"
"+10531v" "\\+10531 v"
"+10532v" "\\+10532 v"
"+10533v" "\\+10533 v"
"+10534v" "\\+10534 v"
"+10535v" "\\+10535 v"
"+10536v" "\\+10536 v"
"+10537v" "\\+10537 v"
"+10538v" "\\+10538 v"
"+10539v" "\\+10539 v"
"+1054v" "\\+1054 v"
"+10540v" "\\+10540 v"
"+10541v" "\\+10541 v"
"+10542v" "\\+10542 v"
"+10543v" "\\+10543 v"
"+10544v" "\\+10544 v"
"+10545v" "\\+10545 v"
"+10546v" "\\+10546 v"
"+10547v" "\\+10547 v"
"+10548v" "\\+10548 v"
"+10549v" "\\+10549 v"
"+1055v" "\\+1055 v"
"+10550v" "\\+10550 v"
"+10551v" "\\+10551 v"
"+10552v" "\\+10552 v"
"+10553v" "\\+10553 v"
"+10554v" "\\+10554 v"
"+10555v" "\\+10555 v"
"+10556v" "\\+10556 v"
"+10557v" "\\+10557 v"
"+10558v" "\\+10558 v"
"+10559v" "\\+10559 v"
"+1056v" "\\+1056 v"
"+10560v" "\\+10560 v"
"+10561v" "\\+10561 v"
"+10562v" "\\+10562 v"
"+10563v" "\\+10563 v"
"+10564v" "\\+10564 v"
"+10565v" "\\+10565 v"
"+10566v" "\\+10566 v"
"+10567v" "\\+10567 v"
"+10568v" "\\+10568 v"
"+10569v" "\\+10569 v"
"+1057v" "\\+1057 v"
"+10570v" "\\+10570 v"
"+10571v" "\\+10571 v"
"+10572v" "\\+10572 v"
"+10573v" "\\+10573 v"
"+10574v" "\\+10574 v"
"+10575v" "\\+10575 v"
"+10576v" "\\+10576 v"
"+10577v" "\\+10577 v"
"+10578v" "\\+10578 v"
"+10579v" "\\+10579 v"
"+1058v" "\\+1058 v"
"+10580v" "\\+10580 v"
"+10581v" "\\+10581 v"
"+10582v" "\\+10582 v"
"+10583v" "\\+10583 v"
"+10584v" "\\+10584 v"
"+10585v" "\\+10585 v"
"+10586v" "\\+10586 v"
"+10587v" "\\+10587 v"
"+10588v" "\\+10588 v"
"+10589v" "\\+10589 v"
"+1059v" "\\+1059 v"
"+10590v" "\\+10590 v"
"+10591v" "\\+10591 v"
"+10592v" "\\+10592 v"
"+10593v" "\\+10593 v"
"+10594v" "\\+10594 v"
"+10595v" "\\+10595 v"
"+10596v" "\\+10596 v"
"+10597v" "\\+10597 v"
"+10598v" "\\+10598 v"
"+10599v" "\\+10599 v"
"+106v" "\\+106 v"
"+1060v" "\\+1060 v"
"+10600v" "\\+10600 v"
"+10601v" "\\+10601 v"
"+10602v" "\\+10602 v"
"+10603v" "\\+10603 v"
"+10604v" "\\+10604 v"
"+10605v" "\\+10605 v"
"+10606v" "\\+10606 v"
"+10607v" "\\+10607 v"
"+10608v" "\\+10608 v"
"+10609v" "\\+10609 v"
"+1061v" "\\+1061 v"
"+10610v" "\\+10610 v"
"+10611v" "\\+10611 v"
"+10612v" "\\+10612 v"
"+10613v" "\\+10613 v"
"+10614v" "\\+10614 v"
"+10615v" "\\+10615 v"
"+10616v" "\\+10616 v"
"+10617v" "\\+10617 v"
"+10618v" "\\+10618 v"
"+10619v" "\\+10619 v"
"+1062v" "\\+1062 v"
"+10620v" "\\+10620 v"
"+10621v" "\\+10621 v"
"+10622v" "\\+10622 v"
"+10623v" "\\+10623 v"
"+10624v" "\\+10624 v"
"+10625v" "\\+10625 v"
"+10626v" "\\+10626 v"
"+10627v" "\\+10627 v"
"+10628v" "\\+10628 v"
"+10629v" "\\+10629 v"
"+1063v" "\\+1063 v"
"+10630v" "\\+10630 v"
"+10631v" "\\+10631 v"
"+10632v" "\\+10632 v"
"+10633v" "\\+10633 v"
"+10634v" "\\+10634 v"
"+10635v" "\\+10635 v"
"+10636v" "\\+10636 v"
"+10637v" "\\+10637 v"
"+10638v" "\\+10638 v"
"+10639v" "\\+10639 v"
"+1064v" "\\+1064 v"
"+10640v" "\\+10640 v"
"+10641v" "\\+10641 v"
"+10642v" "\\+10642 v"
"+10643v" "\\+10643 v"
"+10644v" "\\+10644 v"
"+10645v" "\\+10645 v"
"+10646v" "\\+10646 v"
"+10647v" "\\+10647 v"
"+10648v" "\\+10648 v"
"+10649v" "\\+10649 v"
"+1065v" "\\+1065 v"
"+10650v" "\\+10650 v"
"+10651v" "\\+10651 v"
"+10652v" "\\+10652 v"
"+10653v" "\\+10653 v"
"+10654v" "\\+10654 v"
"+10655v" "\\+10655 v"
"+10656v" "\\+10656 v"
"+10657v" "\\+10657 v"
"+10658v" "\\+10658 v"
"+10659v" "\\+10659 v"
"+1066v" "\\+1066 v"
"+10660v" "\\+10660 v"
"+10661v" "\\+10661 v"
"+10662v" "\\+10662 v"
"+10663v" "\\+10663 v"
"+10664v" "\\+10664 v"
"+10665v" "\\+10665 v"
"+10666v" "\\+10666 v"
"+10667v" "\\+10667 v"
"+10668v" "\\+10668 v"
"+10669v" "\\+10669 v"
"+1067v" "\\+1067 v"
"+10670v" "\\+10670 v"
"+10671v" "\\+10671 v"
"+10672v" "\\+10672 v"
"+10673v" "\\+10673 v"
"+10674v" "\\+10674 v"
"+10675v" "\\+10675 v"
"+10676v" "\\+10676 v"
"+10677v" "\\+10677 v"
"+10678v" "\\+10678 v"
"+10679v" "\\+10679 v"
"+1068v" "\\+1068 v"
"+10680v" "\\+10680 v"
"+10681v" "\\+10681 v"
"+10682v" "\\+10682 v"
"+10683v" "\\+10683 v"
"+10684v" "\\+10684 v"
"+10685v" "\\+10685 v"
"+10686v" "\\+10686 v"
"+10687v" "\\+10687 v"
"+10688v" "\\+10688 v"
"+10689v" "\\+10689 v"
"+1069v" "\\+1069 v"
"+10690v" "\\+10690 v"
"+10691v" "\\+10691 v"
"+10692v" "\\+10692 v"
"+10693v" "\\+10693 v"
"+10694v" "\\+10694 v"
"+10695v" "\\+10695 v"
"+10696v" "\\+10696 v"
"+10697v" "\\+10697 v"
"+10698v" "\\+10698 v"
"+10699v" "\\+10699 v"
"+107v" "\\+107 v"
"+1070v" "\\+1070 v"
"+10700v" "\\+10700 v"
"+10701v" "\\+10701 v"
"+10702v" "\\+10702 v"
"+10703v" "\\+10703 v"
"+10704v" "\\+10704 v"
"+10705v" "\\+10705 v"
"+10706v" "\\+10706 v"
"+10707v" "\\+10707 v"
"+10708v" "\\+10708 v"
"+10709v" "\\+10709 v"
"+1071v" "\\+1071 v"
"+10710v" "\\+10710 v"
"+10711v" "\\+10711 v"
"+10712v" "\\+10712 v"
"+10713v" "\\+10713 v"
"+10714v" "\\+10714 v"
"+10715v" "\\+10715 v"
"+10716v" "\\+10716 v"
"+10717v" "\\+10717 v"
"+10718v" "\\+10718 v"
"+10719v" "\\+10719 v"
"+1072v" "\\+1072 v"
"+10720v" "\\+10720 v"
"+10721v" "\\+10721 v"
"+10722v" "\\+10722 v"
"+10723v" "\\+10723 v"
"+10724v" "\\+10724 v"
"+10725v" "\\+10725 v"
"+10726v" "\\+10726 v"
"+10727v" "\\+10727 v"
"+10728v" "\\+10728 v"
"+10729v" "\\+10729 v"
"+1073v" "\\+1073 v"
"+10730v" "\\+10730 v"
"+10731v" "\\+10731 v"
"+10732v" "\\+10732 v"
"+10733v" "\\+10733 v"
"+10734v" "\\+10734 v"
"+10735v" "\\+10735 v"
"+10736v" "\\+10736 v"
"+10737v" "\\+10737 v"
"+10738v" "\\+10738 v"
"+10739v" "\\+10739 v"
"+1074v" "\\+1074 v"
"+10740v" "\\+10740 v"
"+10741v" "\\+10741 v"
"+10742v" "\\+10742 v"
"+10743v" "\\+10743 v"
"+10744v" "\\+10744 v"
"+10745v" "\\+10745 v"
"+10746v" "\\+10746 v"
"+10747v" "\\+10747 v"
"+10748v" "\\+10748 v"
"+10749v" "\\+10749 v"
"+1075v" "\\+1075 v"
"+10750v" "\\+10750 v"
"+10751v" "\\+10751 v"
"+10752v" "\\+10752 v"
"+10753v" "\\+10753 v"
"+10754v" "\\+10754 v"
"+10755v" "\\+10755 v"
"+10756v" "\\+10756 v"
"+10757v" "\\+10757 v"
"+10758v" "\\+10758 v"
"+10759v" "\\+10759 v"
"+1076v" "\\+1076 v"
"+10760v" "\\+10760 v"
"+10761v" "\\+10761 v"
"+10762v" "\\+10762 v"
"+10763v" "\\+10763 v"
"+10764v" "\\+10764 v"
"+10765v" "\\+10765 v"
"+10766v" "\\+10766 v"
"+10767v" "\\+10767 v"
"+10768v" "\\+10768 v"
"+10769v" "\\+10769 v"
"+1077v" "\\+1077 v"
"+10770v" "\\+10770 v"
"+10771v" "\\+10771 v"
"+10772v" "\\+10772 v"
"+10773v" "\\+10773 v"
"+10774v" "\\+10774 v"
"+10775v" "\\+10775 v"
"+10776v" "\\+10776 v"
"+10777v" "\\+10777 v"
"+10778v" "\\+10778 v"
"+10779v" "\\+10779 v"
"+1078v" "\\+1078 v"
"+10780v" "\\+10780 v"
"+10781v" "\\+10781 v"
"+10782v" "\\+10782 v"
"+10783v" "\\+10783 v"
"+10784v" "\\+10784 v"
"+10785v" "\\+10785 v"
"+10786v" "\\+10786 v"
"+10787v" "\\+10787 v"
"+10788v" "\\+10788 v"
"+10789v" "\\+10789 v"
"+1079v" "\\+1079 v"
"+10790v" "\\+10790 v"
"+10791v" "\\+10791 v"
"+10792v" "\\+10792 v"
"+10793v" "\\+10793 v"
"+10794v" "\\+10794 v"
"+10795v" "\\+10795 v"
"+10796v" "\\+10796 v"
"+10797v" "\\+10797 v"
"+10798v" "\\+10798 v"
"+10799v" "\\+10799 v"
"+108v" "\\+108 v"
"+1080v" "\\+1080 v"
"+10800v" "\\+10800 v"
"+10801v" "\\+10801 v"
"+10802v" "\\+10802 v"
"+10803v" "\\+10803 v"
"+10804v" "\\+10804 v"
"+10805v" "\\+10805 v"
"+10806v" "\\+10806 v"
"+10807v" "\\+10807 v"
"+10808v" "\\+10808 v"
"+10809v" "\\+10809 v"
"+1081v" "\\+1081 v"
"+10810v" "\\+10810 v"
"+10811v" "\\+10811 v"
"+10812v" "\\+10812 v"
"+10813v" "\\+10813 v"
"+10814v" "\\+10814 v"
"+10815v" "\\+10815 v"
"+10816v" "\\+10816 v"
"+10817v" "\\+10817 v"
"+10818v" "\\+10818 v"
"+10819v" "\\+10819 v"
"+1082v" "\\+1082 v"
"+10820v" "\\+10820 v"
"+10821v" "\\+10821 v"
"+10822v" "\\+10822 v"
"+10823v" "\\+10823 v"
"+10824v" "\\+10824 v"
"+10825v" "\\+10825 v"
"+10826v" "\\+10826 v"
"+10827v" "\\+10827 v"
"+10828v" "\\+10828 v"
"+10829v" "\\+10829 v"
"+1083v" "\\+1083 v"
"+10830v" "\\+10830 v"
"+10831v" "\\+10831 v"
"+10832v" "\\+10832 v"
"+10833v" "\\+10833 v"
"+10834v" "\\+10834 v"
"+10835v" "\\+10835 v"
"+10836v" "\\+10836 v"
"+10837v" "\\+10837 v"
"+10838v" "\\+10838 v"
"+10839v" "\\+10839 v"
"+1084v" "\\+1084 v"
"+10840v" "\\+10840 v"
"+10841v" "\\+10841 v"
"+10842v" "\\+10842 v"
"+10843v" "\\+10843 v"
"+10844v" "\\+10844 v"
"+10845v" "\\+10845 v"
"+10846v" "\\+10846 v"
"+10847v" "\\+10847 v"
"+10848v" "\\+10848 v"
"+10849v" "\\+10849 v"
"+1085v" "\\+1085 v"
"+10850v" "\\+10850 v"
"+10851v" "\\+10851 v"
"+10852v" "\\+10852 v"
"+10853v" "\\+10853 v"
"+10854v" "\\+10854 v"
"+10855v" "\\+10855 v"
"+10856v" "\\+10856 v"
"+10857v" "\\+10857 v"
"+10858v" "\\+10858 v"
"+10859v" "\\+10859 v"
"+1086v" "\\+1086 v"
"+10860v" "\\+10860 v"
"+10861v" "\\+10861 v"
"+10862v" "\\+10862 v"
"+10863v" "\\+10863 v"
"+10864v" "\\+10864 v"
"+10865v" "\\+10865 v"
"+10866v" "\\+10866 v"
"+10867v" "\\+10867 v"
"+10868v" "\\+10868 v"
"+10869v" "\\+10869 v"
"+1087v" "\\+1087 v"
"+10870v" "\\+10870 v"
"+10871v" "\\+10871 v"
"+10872v" "\\+10872 v"
"+10873v" "\\+10873 v"
"+10874v" "\\+10874 v"
"+10875v" "\\+10875 v"
"+10876v" "\\+10876 v"
"+10877v" "\\+10877 v"
"+10878v" "\\+10878 v"
"+10879v" "\\+10879 v"
"+1088v" "\\+1088 v"
"+10880v" "\\+10880 v"
"+10881v" "\\+10881 v"
"+10882v" "\\+10882 v"
"+10883v" "\\+10883 v"
"+10884v" "\\+10884 v"
"+10885v" "\\+10885 v"
"+10886v" "\\+10886 v"
"+10887v" "\\+10887 v"
"+10888v" "\\+10888 v"
"+10889v" "\\+10889 v"
"+1089v" "\\+1089 v"
"+10890v" "\\+10890 v"
"+10891v" "\\+10891 v"
"+10892v" "\\+10892 v"
"+10893v" "\\+10893 v"
"+10894v" "\\+10894 v"
"+10895v" "\\+10895 v"
"+10896v" "\\+10896 v"
"+10897v" "\\+10897 v"
"+10898v" "\\+10898 v"
"+10899v" "\\+10899 v"
"+109v" "\\+109 v"
"+1090v" "\\+1090 v"
"+10900v" "\\+10900 v"
"+10901v" "\\+10901 v"
"+10902v" "\\+10902 v"
"+10903v" "\\+10903 v"
"+10904v" "\\+10904 v"
"+10905v" "\\+10905 v"
"+10906v" "\\+10906 v"
"+10907v" "\\+10907 v"
"+10908v" "\\+10908 v"
"+10909v" "\\+10909 v"
"+1091v" "\\+1091 v"
"+10910v" "\\+10910 v"
"+10911v" "\\+10911 v"
"+10912v" "\\+10912 v"
"+10913v" "\\+10913 v"
"+10914v" "\\+10914 v"
"+10915v" "\\+10915 v"
"+10916v" "\\+10916 v"
"+10917v" "\\+10917 v"
"+10918v" "\\+10918 v"
"+10919v" "\\+10919 v"
"+1092v" "\\+1092 v"
"+10920v" "\\+10920 v"
"+10921v" "\\+10921 v"
"+10922v" "\\+10922 v"
"+10923v" "\\+10923 v"
"+10924v" "\\+10924 v"
"+10925v" "\\+10925 v"
"+10926v" "\\+10926 v"
"+10927v" "\\+10927 v"
"+10928v" "\\+10928 v"
"+10929v" "\\+10929 v"
"+1093v" "\\+1093 v"
"+10930v" "\\+10930 v"
"+10931v" "\\+10931 v"
"+10932v" "\\+10932 v"
"+10933v" "\\+10933 v"
"+10934v" "\\+10934 v"
"+10935v" "\\+10935 v"
"+10936v" "\\+10936 v"
"+10937v" "\\+10937 v"
"+10938v" "\\+10938 v"
"+10939v" "\\+10939 v"
"+1094v" "\\+1094 v"
"+10940v" "\\+10940 v"
"+10941v" "\\+10941 v"
"+10942v" "\\+10942 v"
"+10943v" "\\+10943 v"
"+10944v" "\\+10944 v"
"+10945v" "\\+10945 v"
"+10946v" "\\+10946 v"
"+10947v" "\\+10947 v"
"+10948v" "\\+10948 v"
"+10949v" "\\+10949 v"
"+1095v" "\\+1095 v"
"+10950v" "\\+10950 v"
"+10951v" "\\+10951 v"
"+10952v" "\\+10952 v"
"+10953v" "\\+10953 v"
"+10954v" "\\+10954 v"
"+10955v" "\\+10955 v"
"+10956v" "\\+10956 v"
"+10957v" "\\+10957 v"
"+10958v" "\\+10958 v"
"+10959v" "\\+10959 v"
"+1096v" "\\+1096 v"
"+10960v" "\\+10960 v"
"+10961v" "\\+10961 v"
"+10962v" "\\+10962 v"
"+10963v" "\\+10963 v"
"+10964v" "\\+10964 v"
"+10965v" "\\+10965 v"
"+10966v" "\\+10966 v"
"+10967v" "\\+10967 v"
"+10968v" "\\+10968 v"
"+10969v" "\\+10969 v"
"+1097v" "\\+1097 v"
"+10970v" "\\+10970 v"
"+10971v" "\\+10971 v"
"+10972v" "\\+10972 v"
"+10973v" "\\+10973 v"
"+10974v" "\\+10974 v"
"+10975v" "\\+10975 v"
"+10976v" "\\+10976 v"
"+10977v" "\\+10977 v"
"+10978v" "\\+10978 v"
"+10979v" "\\+10979 v"
"+1098v" "\\+1098 v"
"+10980v" "\\+10980 v"
"+10981v" "\\+10981 v"
"+10982v" "\\+10982 v"
"+10983v" "\\+10983 v"
"+10984v" "\\+10984 v"
"+10985v" "\\+10985 v"
"+10986v" "\\+10986 v"
"+10987v" "\\+10987 v"
"+10988v" "\\+10988 v"
"+10989v" "\\+10989 v"
"+1099v" "\\+1099 v"
"+10990v" "\\+10990 v"
"+10991v" "\\+10991 v"
"+10992v" "\\+10992 v"
"+10993v" "\\+10993 v"
"+10994v" "\\+10994 v"
"+10995v" "\\+10995 v"
"+10996v" "\\+10996 v"
"+10997v" "\\+10997 v"
"+10998v" "\\+10998 v"
"+10999v" "\\+10999 v"
"+11v" "\\+11 v"
"+110v" "\\+110 v"
"+1100v" "\\+1100 v"
"+11000v" "\\+11000 v"
"+11001v" "\\+11001 v"
"+11002v" "\\+11002 v"
"+11003v" "\\+11003 v"
"+11004v" "\\+11004 v"
"+11005v" "\\+11005 v"
"+11006v" "\\+11006 v"
"+11007v" "\\+11007 v"
"+11008v" "\\+11008 v"
"+11009v" "\\+11009 v"
"+1101v" "\\+1101 v"
"+11010v" "\\+11010 v"
"+11011v" "\\+11011 v"
"+11012v" "\\+11012 v"
"+11013v" "\\+11013 v"
"+11014v" "\\+11014 v"
"+11015v" "\\+11015 v"
"+11016v" "\\+11016 v"
"+11017v" "\\+11017 v"
"+11018v" "\\+11018 v"
"+11019v" "\\+11019 v"
"+1102v" "\\+1102 v"
"+11020v" "\\+11020 v"
"+11021v" "\\+11021 v"
"+11022v" "\\+11022 v"
"+11023v" "\\+11023 v"
"+11024v" "\\+11024 v"
"+11025v" "\\+11025 v"
"+11026v" "\\+11026 v"
"+11027v" "\\+11027 v"
"+11028v" "\\+11028 v"
"+11029v" "\\+11029 v"
"+1103v" "\\+1103 v"
"+11030v" "\\+11030 v"
"+11031v" "\\+11031 v"
"+11032v" "\\+11032 v"