HEADER
"PSFversion" "1.00"
"C0n C1n" "NCSU_Analog_Parts_cap_spectre"
"V0n" "NCSU_Analog_Parts_vdc_spectre"
"I13n" "project_g01_Mini_Frame_trial2_V01_extracted"
"I15n" "project_g01_Mini_Frame_trial2_V01_tb_vdriver_functional"
