HEADER
"PSFversion" "1.00"
"F<0>v" "F[0]v"
"F<1>v" "F[1]v"
"F<2>v" "F[2]v"
"F<3>v" "F[3]v"
"F<4>v" "F[4]v"
"F<5>v" "F[5]v"
"F<6>v" "F[6]v"
"F<7>v" "F[7]v"
"F<8>v" "F[8]v"
"F<9>v" "F[9]v"
"F<10>v" "F[10]v"
"F<11>v" "F[11]v"
"F<12>v" "F[12]v"
"F<13>v" "F[13]v"
"F<14>v" "F[14]v"
"F<15>v" "F[15]v"
"Clk1A<0>v" "Clk1A[0]v"
"Clk1A<1>v" "Clk1A[1]v"
"Clk1A<2>v" "Clk1A[2]v"
"Clk1A<3>v" "Clk1A[3]v"
"Clk1A<4>v" "Clk1A[4]v"
"Clk1A<5>v" "Clk1A[5]v"
"Clk1A<6>v" "Clk1A[6]v"
"Clk1A<7>v" "Clk1A[7]v"
"Clk2A<0>v" "Clk2A[0]v"
"Clk2A<1>v" "Clk2A[1]v"
"Clk2A<2>v" "Clk2A[2]v"
"Clk2A<3>v" "Clk2A[3]v"
"Clk2A<4>v" "Clk2A[4]v"
"Clk2A<5>v" "Clk2A[5]v"
"Clk2A<6>v" "Clk2A[6]v"
"Clk2A<7>v" "Clk2A[7]v"
"Clk1B<0>v" "Clk1B[0]v"
"Clk1B<1>v" "Clk1B[1]v"
"Clk1B<2>v" "Clk1B[2]v"
"Clk1B<3>v" "Clk1B[3]v"
"Clk1B<4>v" "Clk1B[4]v"
"Clk1B<5>v" "Clk1B[5]v"
"Clk1B<6>v" "Clk1B[6]v"
"Clk1B<7>v" "Clk1B[7]v"
"Clk2B<0>v" "Clk2B[0]v"
"Clk2B<1>v" "Clk2B[1]v"
"Clk2B<2>v" "Clk2B[2]v"
"Clk2B<3>v" "Clk2B[3]v"
"Clk2B<4>v" "Clk2B[4]v"
"Clk2B<5>v" "Clk2B[5]v"
"Clk2B<6>v" "Clk2B[6]v"
"Clk2B<7>v" "Clk2B[7]v"
"Clk1F<0>v" "Clk1F[0]v"
"Clk1F<1>v" "Clk1F[1]v"
"Clk1F<2>v" "Clk1F[2]v"
"Clk1F<3>v" "Clk1F[3]v"
"Clk1F<4>v" "Clk1F[4]v"
"Clk1F<5>v" "Clk1F[5]v"
"Clk1F<6>v" "Clk1F[6]v"
"Clk1F<7>v" "Clk1F[7]v"
"Clk1F<8>v" "Clk1F[8]v"
"Clk1F<9>v" "Clk1F[9]v"
"Clk1F<10>v" "Clk1F[10]v"
"Clk1F<11>v" "Clk1F[11]v"
"Clk1F<12>v" "Clk1F[12]v"
"Clk1F<13>v" "Clk1F[13]v"
"Clk1F<14>v" "Clk1F[14]v"
"Clk1F<15>v" "Clk1F[15]v"
"Clk2F<0>v" "Clk2F[0]v"
"Clk2F<1>v" "Clk2F[1]v"
"Clk2F<2>v" "Clk2F[2]v"
"Clk2F<3>v" "Clk2F[3]v"
"Clk2F<4>v" "Clk2F[4]v"
"Clk2F<5>v" "Clk2F[5]v"
"Clk2F<6>v" "Clk2F[6]v"
"Clk2F<7>v" "Clk2F[7]v"
"Clk2F<8>v" "Clk2F[8]v"
"Clk2F<9>v" "Clk2F[9]v"
"Clk2F<10>v" "Clk2F[10]v"
"Clk2F<11>v" "Clk2F[11]v"
"Clk2F<12>v" "Clk2F[12]v"
"Clk2F<13>v" "Clk2F[13]v"
"Clk2F<14>v" "Clk2F[14]v"
"Clk2F<15>v" "Clk2F[15]v"
"A<0>v" "A[0]v"
"A<1>v" "A[1]v"
"A<2>v" "A[2]v"
"A<3>v" "A[3]v"
"A<4>v" "A[4]v"
"A<5>v" "A[5]v"
"A<6>v" "A[6]v"
"A<7>v" "A[7]v"
"B<0>v" "B[0]v"
"B<1>v" "B[1]v"
"B<2>v" "B[2]v"
"B<3>v" "B[3]v"
"B<4>v" "B[4]v"
"B<5>v" "B[5]v"
"B<6>v" "B[6]v"
"B<7>v" "B[7]v"
"product_expected<0>v" "product_expected[0]v"
"product_expected<1>v" "product_expected[1]v"
"product_expected<2>v" "product_expected[2]v"
"product_expected<3>v" "product_expected[3]v"
"product_expected<4>v" "product_expected[4]v"
"product_expected<5>v" "product_expected[5]v"
"product_expected<6>v" "product_expected[6]v"
"product_expected<7>v" "product_expected[7]v"
"product_expected<8>v" "product_expected[8]v"
"product_expected<9>v" "product_expected[9]v"
"product_expected<10>v" "product_expected[10]v"
"product_expected<11>v" "product_expected[11]v"
"product_expected<12>v" "product_expected[12]v"
"product_expected<13>v" "product_expected[13]v"
"product_expected<14>v" "product_expected[14]v"
"product_expected<15>v" "product_expected[15]v"
