HEADER
"PSFversion" "1.00"
"__NEXT_FILE__" "project_g01_Mini_Frame_trial2_V01_tb_schematic"
