HEADER
"PSFversion" "1.00"
"V0n" "NCSU_Analog_Parts_vdc_spectre"
"V3n V2n V1n" "NCSU_Analog_Parts_vpulse_spectre"
"C0n" "NCSU_Analog_Parts_cap_spectre"
"I10n" "hw1_3_CMOS_3_Input_NOR"
