HEADER
"PSFversion" "1.00"
"N3n N2n N1n" "NCSU_Analog_Parts_nmos4_spectre"
"P0n" "NCSU_Analog_Parts_pmos4_spectre"
"I11n" "inv_min"
"Av" ":1v"
"Bv" ":2v"
"Xv" ":3v"
"phiv" ":4v"
