HEADER
"PSFversion" "1.00"
"V0n" "NCSU_Analog_Parts_vdc_spectre"
"VBn VAn Vphin" "NCSU_Analog_Parts_vpulse_spectre"
"CXn" "NCSU_Analog_Parts_cap_spectre"
"I12n" "DominoAndGate"
