HEADER
"PSFversion" "1.00"
"design" "(\"ECE_6240_Digial\" \"hw3_1_adder_4bit_tb\" \"schematic\" \"\")"
"simulator" "spectre"
"temperature" "27"
"host" ""
"date" "Nov 18 16:57:53 2018"
"title" ""
"analysisList" "()"
END
