HEADER
"PSFversion" "1.00"
"design" "(\"ECE_6240_Digial\" \"hw2_2_XNOR_tb\" \"schematic\" \"\")"
"simulator" "spectre"
"temperature" "27"
"host" ""
"date" "Nov 13 17:39:14 2018"
"title" ""
"analysisList" "()"
END
