HEADER
"PSFversion" "1.00"
"simulator" "spectre"
"version" "17.1.0.160.isr2"
"date" "2:45:27 PM, Tue Nov 13, 2018"
"design" "// Generated for: spectre"
"analysis type" "info.subckts"
"analysis name" "subckts"
"analysis description" "Circuit Information"
"xVecSorted" "unknown"
"tolerance.relative" 0.00100000
TYPE
"subckt" STRUCT(
"subckt_params" STRING *
"subckt_terminals" STRING *
"subckt_instances" STRING *
) PROP(
"key" "sub"
)
VALUE
"hw2_2_XOR" "subckt" (
""
"A B Out vdd! 0"
"I7"
)
"hw1_3_CMOS_2_Input_NAND" "subckt" (
""
"A B Out vdd! 0"
"I7.I3 I7.I2 I7.I1 I7.I0"
)
END
