HEADER
"PSFversion" "1.00"
"design" "(\"ECE_6240_Digital\" \"hw3_1_mirror_adder_1bit_tb\" \"schematic\" \"\")"
"simulator" "spectre"
"temperature" "27"
"host" ""
"date" "Nov 29 10:02:02 2018"
"title" ""
"analysisList" "()"
END
