HEADER
"PSFversion" "1.00"
"simulator" "spectre"
"version" "17.1.0.160.isr2"
"date" "10:02:03 AM, Thur Nov 29, 2018"
"design" "// Generated for: spectre"
"analysis type" "info.subckts"
"analysis name" "subckts"
"analysis description" "Circuit Information"
"xVecSorted" "unknown"
"tolerance.relative" 0.00100000
TYPE
"subckt" STRUCT(
"subckt_params" STRING *
"subckt_terminals" STRING *
"subckt_instances" STRING *
) PROP(
"key" "sub"
)
VALUE
"hw3_1_mirror_adder_1bit" "subckt" (
""
"A B Cin Cout S vdd! 0"
"I16"
)
"hw1_1_c_inverter" "subckt" (
""
"VIN VOUT vdd! 0"
"I16.I3 I16.I2"
)
END
