HEADER
"PSFversion" "1.00"
"V0n" "NCSU_Analog_Parts_vdc_spectre"
"N3n N2n N1n" "NCSU_Analog_Parts_nmos4_spectre"
"Vphin VBn VAn" "NCSU_Analog_Parts_vpulse_spectre"
"P0n" "NCSU_Analog_Parts_pmos4_spectre"
"CXn" "NCSU_Analog_Parts_cap_spectre"
"I11n" "inv_min"
