HEADER
"PSFversion" "1.00"
"design" "(\"ECE_6240_Digial\" \"lab9_b_inv_tb2\" \"config\" \"\")"
"simulator" "ams"
"temperature" "27"
"host" ""
"date" "Oct 30 16:51:46 2018"
"title" ""
"analysisList" "()"
END
