HEADER
"PSFversion" "1.00"
"V1n V0n" "NCSU_Analog_Parts_vdc_spectre"
"I5n" "nand2"
"C0n" "NCSU_Analog_Parts_cap_spectre"
