HEADER
"PSFversion" "1.00"
"design" "(\"ECE_6240_Digial\" \"hw3_1_adder_4bit_tb\" \"config\" \"\")"
"simulator" "ams"
"temperature" "27"
"host" ""
"date" "Nov 18 17:28:05 2018"
"title" ""
"analysisList" "()"
END
