HEADER
"PSFversion" "1.00"
"design" "(\"ECE_6240_Digital\" \"hw3_1_adder_4bit_tb\" \"config\" \"\")"
"simulator" "ams"
"temperature" "27"
"host" ""
"date" "Nov 27 14:33:33 2018"
"title" ""
"analysisList" "()"
END
