HEADER
"PSFversion" "1.00"
"C0n" "NCSU_Analog_Parts_cap_spectre"
"V0n" "NCSU_Analog_Parts_vdc_spectre"
"I2n" "ECE_6240_Digial_lab9_b_inv_tb_vdriver_functional"
"I3n" "ECE_6240_Digial_inv_schematic"
