HEADER
"PSFversion" "1.00"
"test_datav" ".test_datav"
