HEADER
"PSFversion" "1.00"
"__NEXT_FILE__" "ECE_6240_Digial_lab9_b_inv_tb2_schematic"
