HEADER
"PSFversion" "1.00"
"design" "(\"analog_ece6218\" \"OTA\" \"schematic\" \"\")"
"simulator" "spectre"
"temperature" "27"
"host" ""
"date" "Apr 15 20:52:27 2018"
"title" ""
"analysisList" "()"
END
