HEADER
"PSFversion" "1.00"
"simulator" "spectre"
"version" "11.1.0.425.isr10"
"date" "8:52:30 PM, Sun Apr 15, 2018"
"design" "// Generated for: spectre"
"analysis type" "info.subckts"
"analysis name" "subckts"
"analysis description" "Circuit Information"
"xVecSorted" "unknown"
"tolerance.relative" 0.00100000
END
