HEADER
"PSFversion" "1.00"
"design" "(\"Digial\" \"hw1_1_inverter_tb\" \"schematic\" \"\")"
"simulator" "spectre"
"temperature" "27"
"host" ""
"date" "Oct 11 20:45:15 2018"
"title" ""
"analysisList" "()"
END
