HEADER
"PSFversion" "1.00"
"V0n" "NCSU_Analog_Parts_vdc_spectre"
"I36n" "ECE_6240_Digital_hw3_1_mirror_adder_4bit_schematic"
"I37n" "ECE_6240_Digital_hw3_1_mirror_adder_4bit_tb_vdriver_functional"
