HEADER
"PSFversion" "1.00"
"A_data<0>v" "A_data[0]v"
"A_data<1>v" "A_data[1]v"
"A_data<2>v" "A_data[2]v"
"A_data<3>v" "A_data[3]v"
"B_data<0>v" "B_data[0]v"
"B_data<1>v" "B_data[1]v"
"B_data<2>v" "B_data[2]v"
"B_data<3>v" "B_data[3]v"
"gnd!v" "cds_globals.\\gnd! v"
"sum<0>v" "sum[0]v"
"sum<1>v" "sum[1]v"
"sum<2>v" "sum[2]v"
"sum<3>v" "sum[3]v"
"vdd!v" "cds_globals.\\vdd! v"
"A_data<0>v" "A_data[0]v"
"A_data<1>v" "A_data[1]v"
"A_data<2>v" "A_data[2]v"
"A_data<3>v" "A_data[3]v"
"B_data<0>v" "B_data[0]v"
"B_data<1>v" "B_data[1]v"
"B_data<2>v" "B_data[2]v"
"B_data<3>v" "B_data[3]v"
"gnd!v" "cds_globals.\\gnd! v"
"sum<0>v" "sum[0]v"
"sum<1>v" "sum[1]v"
"sum<2>v" "sum[2]v"
"sum<3>v" "sum[3]v"
"vdd!v" "cds_globals.\\vdd! v"
