HEADER
"PSFversion" "1.00"
"design" "(\"project_g01\" \"nand2\" \"extracted\" \"\")"
"simulator" "spectre"
"temperature" "27"
"host" ""
"date" "Nov 17 13:04:36 2018"
"title" ""
"analysisList" "()"
END
