HEADER
"PSFversion" "1.00"
"design" "(\"ECE_6240_Digial\" \"hw2_1_b_buffer_tb\" \"schematic\" \"\")"
"simulator" "spectre"
"temperature" "27"
"host" ""
"date" "Nov  5 22:52:41 2018"
"title" ""
"analysisList" "()"
END
