HEADER
"PSFversion" "1.00"
"design" "(\"ECE_6240_Digial\" \"hw2_1_b_buffer_tb\" \"schematic\" \"\")"
"simulator" "spectre"
"temperature" "27"
"host" ""
"date" "Nov 13 15:38:34 2018"
"title" ""
"analysisList" "()"
END
