HEADER
"PSFversion" "1.00"
"design" "(\"ECE_6240_Digial\" \"hw3_1_adder_4bit_tb\" \"config\" \"\")"
"simulator" "spectre"
"temperature" "27"
"host" ""
"date" "Nov 16 10:33:55 2018"
"title" ""
"analysisList" "()"
END
