HEADER
"PSFversion" "1.00"
"simulator" "spectre"
"version" "17.1.0.160.isr2"
"date" "5:35:01 PM, Tue Sep 25, 2018"
"design" "// Generated for: spectre"
"analysis type" "info"
"analysis name" "designParamVals"
"analysis description" "Circuit Information"
"xVecSorted" "unknown"
"tolerance.relative" 0.00100000
TYPE
"top-level" STRUCT(
"temp" FLOAT DOUBLE
"tnom" FLOAT DOUBLE
"time" FLOAT DOUBLE
"w_n" FLOAT DOUBLE
"w_p" FLOAT DOUBLE
) PROP(
"key" "parameters"
)
VALUE
"top-level" "top-level" (
2.700000000000000e+01
2.500000000000000e+01
0.000000000000000e+00
1.500000000000000e+00
1.500000000000000e+00
)
END
