HEADER
"PSFversion" "1.00"
"Time Stamp" "Sep 25 17:35:00 2018"
TYPE
"variable" STRUCT(
"value" FLOAT DOUBLE
) PROP( "key" "element" )
VALUE
"w_p" "variable" ( 1.5 ) PROP( )
"w_n" "variable" ( 1.5 ) PROP( )
"temp" "variable" ( 27 ) PROP( )
END
