HEADER
"PSFversion" "1.00"
"design" "(\"project_g01\" \"Mini_Frame_trial2_V0_tb\" \"config\" \"\")"
"simulator" "ams"
"temperature" "27"
"host" ""
"date" "Nov 29 15:26:10 2018"
"title" ""
"analysisList" "()"
END
