HEADER
"PSFversion" "1.00"
"V0n" "NCSU_Analog_Parts_vdc_spectre"
"I13n" "ECE_6240_Digial_hw3_1_adder_4bit_schematic"
"I28n" "ECE_6240_Digial_hw3_1_adder_4bit_tb_vdriver_functional"
