HEADER
"PSFversion" "1.00"
"__NEXT_FILE__" "ECE_6240_Digital_hw3_1_adder_4bit_tb_schematic"
