HEADER
"PSFversion" "1.00"
"sum<3>v" "\:sum<3>v"
"sum<2>v" "\:sum<2>v"
"sum<1>v" "\:sum<1>v"
"sum<0>v" "\:sum<0>v"
"c_outv" "\:c_outv"
"A_data<3>v" "\:A_data<3>v"
"A_data<2>v" "\:A_data<2>v"
"A_data<1>v" "\:A_data<1>v"
"A_data<0>v" "\:A_data<0>v"
"B_data<3>v" "\:B_data<3>v"
"B_data<2>v" "\:B_data<2>v"
"B_data<1>v" "\:B_data<1>v"
"B_data<0>v" "\:B_data<0>v"
"c_inv" "\:c_inv"
