HEADER
"PSFversion" "1.00"
"I3n I2n I1n I0n" "hw3_1_adder_1bit"
"A0v" ":1v"
"A1v" ":2v"
"A2v" ":3v"
"A3v" ":4v"
"B0v" ":5v"
"B1v" ":6v"
"B2v" ":7v"
"B3v" ":8v"
"Cinv" ":9v"
"Coutv" ":10v"
"S0v" ":11v"
"S1v" ":12v"
"S2v" ":13v"
"S3v" ":14v"
