HEADER
"PSFversion" "1.00"
"V0n" "NCSU_Analog_Parts_vdc_spectre"
"C4n C6n C3n C5n C7n" "NCSU_Analog_Parts_cap_spectre"
"I28n" "ECE_6240_Digial_hw3_1_adder_4bit_tb_vdriver_functional"
"I13n" "hw3_1_adder_4bit"
