HEADER
"PSFversion" "1.00"
"I0n" "hw1_3_CMOS_2_Input_NOR"
"I1n" "hw1_1_c_inverter"
"Av" ":1v"
"Bv" ":2v"
"Outv" ":3v"
