HEADER
"PSFversion" "1.00"
"I0n" "hw1_3_CMOS_3_Input_NAND"
"I1n" "hw1_1_c_inverter"
"Av" ":1v"
"Bv" ":2v"
"Cv" ":3v"
"Outv" ":4v"
