HEADER
"PSFversion" "1.00"
"P11n P10n P9n P8n P7n P6n P5n P4n P3n P2n P1n P0n" "NCSU_Analog_Parts_pmos4_spectre"
"N11n N10n N9n N8n N7n N6n N5n N4n N3n N2n N1n N0n" "NCSU_Analog_Parts_nmos4_spectre"
"I3n I2n" "hw1_1_c_inverter"
"Av" ":1v"
"Bv" ":2v"
"Cinv" ":3v"
"Coutv" ":4v"
"Sv" ":5v"
