HEADER
"PSFversion" "1.00"
"P3n P1n" "NCSU_Analog_Parts_pmos4_spectre"
"CLn C22n C11n" "NCSU_Analog_Parts_cap_spectre"
"V0n" "NCSU_Analog_Parts_vsin_spectre"
"I4n" "OTA"
"V2n V1n" "NCSU_Analog_Parts_vdc_spectre"
