HEADER
"PSFversion" "1.00"
"__NEXT_FILE__" "Neural_Amp"
