HEADER
"PSFversion" "1.00"
"design" "(\"ECE_6240_Digial\" \"hw3_1_adder_tb\" \"schematic\" \"\")"
"simulator" "spectre"
"temperature" "27"
"host" ""
"date" "Nov 15 10:46:06 2018"
"title" ""
"analysisList" "()"
END
