HEADER
"PSFversion" "1.00"
"design" "(\"ECE_6240_Digial\" \"hw1_1_c_inverter_tb\" \"schematic\" \"\")"
"simulator" "spectre"
"temperature" "27"
"host" ""
"date" "Oct 16 18:14:11 2018"
"title" ""
"analysisList" "()"
END
