HEADER
"PSFversion" "1.00"
"design" "(\"ECE_6240_Digial\" \"hw2_2_XOR\" \"extracted\" \"\")"
"simulator" "spectre"
"temperature" "27"
"host" ""
"date" "Nov 13 16:54:05 2018"
"title" ""
"analysisList" "()"
END
