HEADER
"PSFversion" "1.00"
"__artInstanceTerminalDelimiter__" "."
"__artHierarchyDelimiter__" "."
"__netlister__" "AMS-UNL"
"__lib__" "ECE_6240_Digial"
"__cell__" "hw3_1_adder_4bit_tb"
"__view__" "config"
"__topcell__" "hw3_1_adder_4bit_tb"
"__outputformat__" "sst2"
