HEADER
"PSFversion" "1.00"
"__artInstanceTerminalDelimiter__" "."
"__artHierarchyDelimiter__" "."
"__netlister__" "AMS-UNL"
"__lib__" "project_g01"
"__cell__" "Mini_Frame_trial2_V01_tb"
"__view__" "config"
"__topcell__" "Mini_Frame_trial2_V01_tb"
"__outputformat__" "sst2"
