HEADER
"PSFversion" "1.00"
"design" "(\"ECE_6240_Digial\" \"hw1_3_CMOS_3_Input_NOR_tb\" \"schematic\" \"\")"
"simulator" "spectre"
"temperature" "27"
"host" ""
"date" "Oct 18 10:53:18 2018"
"title" ""
"analysisList" "()"
END
