HEADER
"PSFversion" "1.00"
"simulator" "spectre"
"version" "11.1.0.425.isr10"
"date" "10:53:19 AM, Thur Oct 18, 2018"
"design" "// Generated for: spectre"
"analysis type" "info.subckts"
"analysis name" "subckts"
"analysis description" "Circuit Information"
"xVecSorted" "unknown"
"tolerance.relative" 0.00100000
TYPE
"subckt" STRUCT(
"subckt_params" STRING *
"subckt_terminals" STRING *
) PROP(
"key" "sub"
)
VALUE
"hw1_3_CMOS_3_Input_NOR" "subckt" (
""
"A B C Out 0 vdd!"
)
END
