HEADER
"PSFversion" "1.00"
"design" "(\"Digial\" \"DominoAndGate_tb\" \"schematic\" \"\")"
"simulator" "spectre"
"temperature" "27"
"host" ""
"date" "Oct  2 17:37:10 2018"
"title" ""
"analysisList" "()"
END
