HEADER
"PSFversion" "1.00"
"design" "(\"Digial\" \"hw1_1_inverter\" \"schematic\" \"\")"
"simulator" "spectre"
"temperature" "27"
"host" ""
"date" "Oct  9 10:44:49 2018"
"title" ""
"analysisList" "()"
END
