HEADER
"PSFversion" "1.00"
"V0n" "NCSU_Analog_Parts_vdc_spectre"
"I7n" "hw2_2_XNOR"
"C0n" "NCSU_Analog_Parts_cap_spectre"
"V1n V2n" "NCSU_Analog_Parts_vpulse_spectre"
