HEADER
"PSFversion" "1.00"
"I3n I2n I1n I0n" "hw1_3_CMOS_2_Input_NOR"
"Av" ":1v"
"Bv" ":2v"
"Outv" ":3v"
